<?xml version="1.0" encoding="UTF-8"?>

<!-- generated on 2025-10-30 10:53:45 by Eclipse SUMO sumo Version 1.22.0
<sumoConfiguration xmlns:xsi="http://www.w3.org/2001/XMLSchema-instance" xsi:noNamespaceSchemaLocation="http://sumo.dlr.de/xsd/sumoConfiguration.xsd">

    <input>
        <net-file value="/Users/apple/Desktop/vanet_29_oct/vanet_final_v3/rl_module/../sumo_simulation/maps/simple_network.net.xml"/>
        <route-files value="/Users/apple/Desktop/vanet_29_oct/vanet_final_v3/rl_module/../sumo_simulation/maps/routes.rou.xml"/>
    </input>

    <output>
        <summary-output value="/Users/apple/Desktop/vanet_29_oct/vanet_final_v3/rl_module/../sumo_simulation/output/summary.xml"/>
        <tripinfo-output value="/Users/apple/Desktop/vanet_29_oct/vanet_final_v3/rl_module/../sumo_simulation/output/tripinfo.xml"/>
    </output>

    <time>
        <begin value="0"/>
        <end value="3600"/>
        <step-length value="1"/>
    </time>

    <processing>
        <time-to-teleport value="300"/>
    </processing>

    <report>
        <no-warnings value="true"/>
    </report>

    <traci_server>
        <remote-port value="55092"/>
    </traci_server>

    <gui_only>
        <gui-settings-file value="/Users/apple/Desktop/vanet_29_oct/vanet_final_v3/rl_module/../sumo_simulation/maps/gui-settings.cfg"/>
        <quit-on-end value="true"/>
        <start value="true"/>
    </gui_only>

</sumoConfiguration>
-->

<tripinfos xmlns:xsi="http://www.w3.org/2001/XMLSchema-instance" xsi:noNamespaceSchemaLocation="http://sumo.dlr.de/xsd/tripinfo_file.xsd">
    <tripinfo id="test_vehicle_4" depart="7.00" departLane="E7_0" departPos="5.10" departSpeed="0.00" departDelay="0.00" arrival="81.00" arrivalLane="E8_0" arrivalPos="496.00" arrivalSpeed="14.24" duration="74.00" routeLength="994.90" waitingTime="0.00" waitingCount="0" stopTime="0.00" timeLoss="6.99" rerouteNo="0" devices="tripinfo_test_vehicle_4" vType="passenger" speedFactor="1.08" vaporized=""/>
    <tripinfo id="test_vehicle_2" depart="3.00" departLane="E5_0" departPos="5.10" departSpeed="0.00" departDelay="0.00" arrival="103.00" arrivalLane="E6_0" arrivalPos="496.00" arrivalSpeed="12.54" duration="100.00" routeLength="994.90" waitingTime="13.00" waitingCount="1" stopTime="0.00" timeLoss="23.55" rerouteNo="0" devices="tripinfo_test_vehicle_2" vType="passenger" speedFactor="0.94" vaporized=""/>
    <tripinfo id="flow_ns_j2.0" depart="25.00" departLane="E5_1" departPos="5.10" departSpeed="13.03" departDelay="0.00" arrival="105.00" arrivalLane="E6_0" arrivalPos="496.00" arrivalSpeed="12.55" duration="80.00" routeLength="994.90" waitingTime="0.00" waitingCount="0" stopTime="0.00" timeLoss="3.57" rerouteNo="0" devices="tripinfo_flow_ns_j2.0" vType="passenger" speedFactor="0.94" vaporized=""/>
    <tripinfo id="flow_ns_j2.1" depart="36.00" departLane="E5_1" departPos="5.10" departSpeed="14.54" departDelay="0.71" arrival="116.00" arrivalLane="E6_0" arrivalPos="496.00" arrivalSpeed="13.63" duration="80.00" routeLength="994.90" waitingTime="4.00" waitingCount="1" stopTime="0.00" timeLoss="11.57" rerouteNo="0" devices="tripinfo_flow_ns_j2.1" vType="passenger" speedFactor="1.05" vaporized=""/>
    <tripinfo id="flow_ns_j3.1" depart="41.00" departLane="E7_1" departPos="5.10" departSpeed="15.60" departDelay="0.71" arrival="125.00" arrivalLane="E8_0" arrivalPos="496.00" arrivalSpeed="15.08" duration="84.00" routeLength="994.90" waitingTime="10.00" waitingCount="1" stopTime="0.00" timeLoss="19.75" rerouteNo="0" devices="tripinfo_flow_ns_j3.1" vType="passenger" speedFactor="1.12" vaporized=""/>
    <tripinfo id="test_vehicle_1" depart="1.00" departLane="E1_0" departPos="5.10" departSpeed="0.00" departDelay="0.00" arrival="128.00" arrivalLane="E3_0" arrivalPos="489.60" arrivalSpeed="13.62" duration="127.00" routeLength="1494.90" waitingTime="12.00" waitingCount="1" stopTime="0.00" timeLoss="24.91" rerouteNo="0" devices="tripinfo_test_vehicle_1" vType="passenger" speedFactor="1.06" vaporized=""/>
    <tripinfo id="flow_ns_j3.2" depart="51.00" departLane="E7_0" departPos="5.10" departSpeed="16.09" departDelay="0.43" arrival="130.00" arrivalLane="E8_1" arrivalPos="496.00" arrivalSpeed="15.41" duration="79.00" routeLength="994.90" waitingTime="3.00" waitingCount="1" stopTime="0.00" timeLoss="16.76" rerouteNo="0" devices="tripinfo_flow_ns_j3.2" vType="passenger" speedFactor="1.16" vaporized=""/>
    <tripinfo id="test_vehicle_3" depart="5.00" departLane="E1_0" departPos="5.10" departSpeed="0.00" departDelay="0.00" arrival="131.00" arrivalLane="E3_0" arrivalPos="489.60" arrivalSpeed="13.48" duration="126.00" routeLength="1494.90" waitingTime="6.00" waitingCount="1" stopTime="0.00" timeLoss="18.94" rerouteNo="0" devices="tripinfo_test_vehicle_3" vType="passenger" speedFactor="1.01" vaporized=""/>
    <tripinfo id="flow_ns_j2.3" depart="56.00" departLane="E5_1" departPos="5.10" departSpeed="14.03" departDelay="0.14" arrival="131.00" arrivalLane="E6_0" arrivalPos="496.00" arrivalSpeed="13.25" duration="75.00" routeLength="994.90" waitingTime="0.00" waitingCount="0" stopTime="0.00" timeLoss="3.74" rerouteNo="0" devices="tripinfo_flow_ns_j2.3" vType="passenger" speedFactor="1.01" vaporized=""/>
    <tripinfo id="flow_ns_j3.0" depart="30.00" departLane="E7_1" departPos="5.10" departSpeed="11.90" departDelay="0.00" arrival="135.00" arrivalLane="E8_0" arrivalPos="496.00" arrivalSpeed="11.74" duration="105.00" routeLength="994.90" waitingTime="12.00" waitingCount="1" stopTime="0.00" timeLoss="21.05" rerouteNo="0" devices="tripinfo_flow_ns_j3.0" vType="passenger" speedFactor="0.86" vaporized=""/>
    <tripinfo id="flow_ns_j2.2" depart="46.00" departLane="E5_1" departPos="5.10" departSpeed="12.20" departDelay="0.43" arrival="139.00" arrivalLane="E6_0" arrivalPos="496.00" arrivalSpeed="11.07" duration="93.00" routeLength="994.90" waitingTime="1.00" waitingCount="1" stopTime="0.00" timeLoss="10.93" rerouteNo="0" devices="tripinfo_flow_ns_j2.2" vType="passenger" speedFactor="0.88" vaporized=""/>
    <tripinfo id="flow_ns_j2.5" depart="77.00" departLane="E5_1" departPos="5.10" departSpeed="15.72" departDelay="0.57" arrival="153.00" arrivalLane="E6_0" arrivalPos="496.00" arrivalSpeed="15.45" duration="76.00" routeLength="994.90" waitingTime="3.00" waitingCount="1" stopTime="0.00" timeLoss="12.55" rerouteNo="0" devices="tripinfo_flow_ns_j2.5" vType="passenger" speedFactor="1.13" vaporized=""/>
    <tripinfo id="flow_ns_j2.4" depart="67.00" departLane="E5_0" departPos="5.10" departSpeed="11.47" departDelay="0.86" arrival="165.00" arrivalLane="E6_0" arrivalPos="496.00" arrivalSpeed="10.36" duration="98.00" routeLength="994.90" waitingTime="2.00" waitingCount="1" stopTime="0.00" timeLoss="11.19" rerouteNo="0" devices="tripinfo_flow_ns_j2.4" vType="passenger" speedFactor="0.83" vaporized=""/>
    <tripinfo id="flow_ew_j2.1" depart="24.00" departLane="E1_1" departPos="5.10" departSpeed="12.31" departDelay="0.00" arrival="166.00" arrivalLane="E3_1" arrivalPos="489.60" arrivalSpeed="11.54" duration="142.00" routeLength="1494.90" waitingTime="3.00" waitingCount="2" stopTime="0.00" timeLoss="19.73" rerouteNo="0" devices="tripinfo_flow_ew_j2.1" vType="passenger" speedFactor="0.89" vaporized=""/>
    <tripinfo id="flow_ew_j2.0" depart="15.00" departLane="E1_1" departPos="5.10" departSpeed="11.54" departDelay="0.00" arrival="167.00" arrivalLane="E3_0" arrivalPos="489.60" arrivalSpeed="11.16" duration="152.00" routeLength="1494.90" waitingTime="8.00" waitingCount="1" stopTime="0.00" timeLoss="21.63" rerouteNo="0" devices="tripinfo_flow_ew_j2.0" vType="passenger" speedFactor="0.83" vaporized=""/>
    <tripinfo id="flow_ns_j2.7" depart="98.00" departLane="E5_1" departPos="5.10" departSpeed="16.39" departDelay="1.00" arrival="168.00" arrivalLane="E6_1" arrivalPos="496.00" arrivalSpeed="16.19" duration="70.00" routeLength="994.90" waitingTime="1.00" waitingCount="1" stopTime="0.00" timeLoss="9.12" rerouteNo="0" devices="tripinfo_flow_ns_j2.7" vType="passenger" speedFactor="1.18" vaporized=""/>
    <tripinfo id="flow_ew_j2.2" depart="33.00" departLane="E1_0" departPos="5.10" departSpeed="14.26" departDelay="0.00" arrival="169.00" arrivalLane="E3_0" arrivalPos="489.60" arrivalSpeed="13.03" duration="136.00" routeLength="1494.90" waitingTime="6.00" waitingCount="1" stopTime="0.00" timeLoss="31.01" rerouteNo="0" devices="tripinfo_flow_ew_j2.2" vType="passenger" speedFactor="1.03" vaporized=""/>
    <tripinfo id="flow_ns_j2.6" depart="87.00" departLane="E5_0" departPos="5.10" departSpeed="16.28" departDelay="0.28" arrival="169.00" arrivalLane="E6_0" arrivalPos="496.00" arrivalSpeed="16.08" duration="82.00" routeLength="994.90" waitingTime="13.00" waitingCount="1" stopTime="0.00" timeLoss="20.70" rerouteNo="0" devices="tripinfo_flow_ns_j2.6" vType="passenger" speedFactor="1.17" vaporized=""/>
    <tripinfo id="flow_ns_j3.5" depart="82.00" departLane="E7_1" departPos="5.10" departSpeed="16.03" departDelay="0.57" arrival="175.00" arrivalLane="E8_1" arrivalPos="496.00" arrivalSpeed="15.71" duration="93.00" routeLength="994.90" waitingTime="17.00" waitingCount="2" stopTime="0.00" timeLoss="30.67" rerouteNo="0" devices="tripinfo_flow_ns_j3.5" vType="passenger" speedFactor="1.15" vaporized=""/>
    <tripinfo id="flow_ns_j3.4" depart="72.00" departLane="E7_1" departPos="5.10" departSpeed="13.18" departDelay="0.86" arrival="176.00" arrivalLane="E8_0" arrivalPos="496.00" arrivalSpeed="12.24" duration="104.00" routeLength="994.90" waitingTime="18.00" waitingCount="2" stopTime="0.00" timeLoss="27.64" rerouteNo="0" devices="tripinfo_flow_ns_j3.4" vType="passenger" speedFactor="0.95" vaporized=""/>
    <tripinfo id="flow_ns_j3.3" depart="61.00" departLane="E7_1" departPos="5.10" departSpeed="12.36" departDelay="0.14" arrival="178.00" arrivalLane="E8_0" arrivalPos="496.00" arrivalSpeed="11.38" duration="117.00" routeLength="994.90" waitingTime="27.00" waitingCount="2" stopTime="0.00" timeLoss="36.18" rerouteNo="0" devices="tripinfo_flow_ns_j3.3" vType="passenger" speedFactor="0.89" vaporized=""/>
    <tripinfo id="emergency_1" depart="10.00" departLane="E1_0" departPos="6.10" departSpeed="0.00" departDelay="0.00" arrival="179.00" arrivalLane="E4_0" arrivalPos="500.00" arrivalSpeed="13.80" duration="169.00" routeLength="1994.00" waitingTime="18.00" waitingCount="2" stopTime="0.00" timeLoss="29.20" rerouteNo="0" devices="tripinfo_emergency_1" vType="emergency" speedFactor="1.03" vaporized=""/>
    <tripinfo id="flow_ns_j3.6" depart="92.00" departLane="E7_0" departPos="5.10" departSpeed="14.16" departDelay="0.28" arrival="180.00" arrivalLane="E8_0" arrivalPos="496.00" arrivalSpeed="13.78" duration="88.00" routeLength="994.90" waitingTime="3.00" waitingCount="2" stopTime="0.00" timeLoss="17.33" rerouteNo="0" devices="tripinfo_flow_ns_j3.6" vType="passenger" speedFactor="1.02" vaporized=""/>
    <tripinfo id="flow_ew_full.0" depart="20.00" departLane="E1_0" departPos="5.10" departSpeed="14.53" departDelay="0.00" arrival="182.00" arrivalLane="E4_0" arrivalPos="500.00" arrivalSpeed="13.86" duration="162.00" routeLength="1995.00" waitingTime="10.00" waitingCount="1" stopTime="0.00" timeLoss="23.76" rerouteNo="0" devices="tripinfo_flow_ew_full.0" vType="passenger" speedFactor="1.05" vaporized=""/>
    <tripinfo id="flow_ew_j2.3" depart="42.00" departLane="E1_1" departPos="5.10" departSpeed="13.77" departDelay="0.00" arrival="183.00" arrivalLane="E3_0" arrivalPos="489.60" arrivalSpeed="12.79" duration="141.00" routeLength="1494.90" waitingTime="13.00" waitingCount="2" stopTime="0.00" timeLoss="32.38" rerouteNo="0" devices="tripinfo_flow_ew_j2.3" vType="passenger" speedFactor="0.99" vaporized=""/>
    <tripinfo id="flow_ns_j3.7" depart="103.00" departLane="E7_1" departPos="5.10" departSpeed="15.31" departDelay="1.00" arrival="183.00" arrivalLane="E8_0" arrivalPos="496.00" arrivalSpeed="15.26" duration="80.00" routeLength="994.90" waitingTime="4.00" waitingCount="1" stopTime="0.00" timeLoss="14.98" rerouteNo="0" devices="tripinfo_flow_ns_j3.7" vType="passenger" speedFactor="1.10" vaporized=""/>
    <tripinfo id="flow_ns_j3.8" depart="113.00" departLane="E7_1" departPos="5.10" departSpeed="15.17" departDelay="0.71" arrival="190.00" arrivalLane="E8_0" arrivalPos="496.00" arrivalSpeed="14.02" duration="77.00" routeLength="994.90" waitingTime="1.00" waitingCount="1" stopTime="0.00" timeLoss="11.34" rerouteNo="0" devices="tripinfo_flow_ns_j3.8" vType="passenger" speedFactor="1.09" vaporized=""/>
    <tripinfo id="flow_ew_j2.5" depart="60.00" departLane="E1_0" departPos="5.10" departSpeed="13.54" departDelay="0.00" arrival="191.00" arrivalLane="E3_1" arrivalPos="489.60" arrivalSpeed="12.56" duration="131.00" routeLength="1494.90" waitingTime="1.00" waitingCount="1" stopTime="0.00" timeLoss="19.98" rerouteNo="0" devices="tripinfo_flow_ew_j2.5" vType="passenger" speedFactor="0.97" vaporized=""/>
    <tripinfo id="flow_ew_full.1" depart="32.00" departLane="E1_1" departPos="5.10" departSpeed="15.15" departDelay="0.00" arrival="202.00" arrivalLane="E4_0" arrivalPos="500.00" arrivalSpeed="14.94" duration="170.00" routeLength="1995.00" waitingTime="10.00" waitingCount="2" stopTime="0.00" timeLoss="38.10" rerouteNo="0" devices="tripinfo_flow_ew_full.1" vType="passenger" speedFactor="1.09" vaporized=""/>
    <tripinfo id="flow_ns_j2.9" depart="118.00" departLane="E5_1" departPos="5.10" departSpeed="15.11" departDelay="0.43" arrival="202.00" arrivalLane="E6_0" arrivalPos="496.00" arrivalSpeed="14.09" duration="84.00" routeLength="994.90" waitingTime="8.00" waitingCount="1" stopTime="0.00" timeLoss="17.43" rerouteNo="0" devices="tripinfo_flow_ns_j2.9" vType="passenger" speedFactor="1.09" vaporized=""/>
    <tripinfo id="flow_ew_j2.4" depart="51.00" departLane="E1_0" departPos="5.10" departSpeed="13.00" departDelay="0.00" arrival="206.00" arrivalLane="E3_0" arrivalPos="489.60" arrivalSpeed="12.65" duration="155.00" routeLength="1494.90" waitingTime="11.00" waitingCount="2" stopTime="0.00" timeLoss="39.70" rerouteNo="0" devices="tripinfo_flow_ew_j2.4" vType="passenger" speedFactor="0.94" vaporized=""/>
    <tripinfo id="flow_ns_j2.8" depart="108.00" departLane="E5_0" departPos="5.10" departSpeed="13.29" departDelay="0.71" arrival="207.00" arrivalLane="E6_0" arrivalPos="496.00" arrivalSpeed="12.36" duration="99.00" routeLength="994.90" waitingTime="14.00" waitingCount="1" stopTime="0.00" timeLoss="23.73" rerouteNo="0" devices="tripinfo_flow_ns_j2.8" vType="passenger" speedFactor="0.96" vaporized=""/>
    <tripinfo id="flow_ew_j2.6" depart="69.00" departLane="E1_0" departPos="5.10" departSpeed="12.74" departDelay="0.00" arrival="212.00" arrivalLane="E3_0" arrivalPos="489.60" arrivalSpeed="11.72" duration="143.00" routeLength="1494.90" waitingTime="7.00" waitingCount="1" stopTime="0.00" timeLoss="24.85" rerouteNo="0" devices="tripinfo_flow_ew_j2.6" vType="passenger" speedFactor="0.92" vaporized=""/>
    <tripinfo id="flow_ew_j2.7" depart="78.00" departLane="E1_1" departPos="5.10" departSpeed="12.94" departDelay="0.00" arrival="216.00" arrivalLane="E3_1" arrivalPos="489.60" arrivalSpeed="12.69" duration="138.00" routeLength="1494.90" waitingTime="0.00" waitingCount="0" stopTime="0.00" timeLoss="21.76" rerouteNo="0" devices="tripinfo_flow_ew_j2.7" vType="passenger" speedFactor="0.93" vaporized=""/>
    <tripinfo id="flow_ns_j2.11" depart="139.00" departLane="E5_1" departPos="5.10" departSpeed="14.12" departDelay="0.85" arrival="217.00" arrivalLane="E6_0" arrivalPos="496.00" arrivalSpeed="13.27" duration="78.00" routeLength="994.90" waitingTime="0.00" waitingCount="0" stopTime="0.00" timeLoss="7.12" rerouteNo="0" devices="tripinfo_flow_ns_j2.11" vType="passenger" speedFactor="1.02" vaporized=""/>
    <tripinfo id="flow_ew_j2.8" depart="87.00" departLane="E1_1" departPos="5.10" departSpeed="13.96" departDelay="0.00" arrival="219.00" arrivalLane="E3_1" arrivalPos="489.60" arrivalSpeed="13.07" duration="132.00" routeLength="1494.90" waitingTime="3.00" waitingCount="1" stopTime="0.00" timeLoss="24.87" rerouteNo="0" devices="tripinfo_flow_ew_j2.8" vType="passenger" speedFactor="1.01" vaporized=""/>
    <tripinfo id="flow_ns_j2.10" depart="128.00" departLane="E5_0" departPos="5.10" departSpeed="11.81" departDelay="0.14" arrival="219.00" arrivalLane="E6_0" arrivalPos="496.00" arrivalSpeed="11.34" duration="91.00" routeLength="994.90" waitingTime="0.00" waitingCount="0" stopTime="0.00" timeLoss="6.31" rerouteNo="0" devices="tripinfo_flow_ns_j2.10" vType="passenger" speedFactor="0.85" vaporized=""/>
    <tripinfo id="flow_ew_full.3" depart="56.00" departLane="E1_1" departPos="5.10" departSpeed="14.14" departDelay="0.00" arrival="220.00" arrivalLane="E4_1" arrivalPos="500.00" arrivalSpeed="12.88" duration="164.00" routeLength="1995.00" waitingTime="2.00" waitingCount="1" stopTime="0.00" timeLoss="22.69" rerouteNo="0" devices="tripinfo_flow_ew_full.3" vType="passenger" speedFactor="1.02" vaporized=""/>
    <tripinfo id="flow_ew_full.2" depart="44.00" departLane="E1_0" departPos="5.10" departSpeed="12.87" departDelay="0.00" arrival="221.00" arrivalLane="E4_0" arrivalPos="500.00" arrivalSpeed="11.70" duration="177.00" routeLength="1995.00" waitingTime="2.00" waitingCount="2" stopTime="0.00" timeLoss="21.52" rerouteNo="0" devices="tripinfo_flow_ew_full.2" vType="passenger" speedFactor="0.93" vaporized=""/>
    <tripinfo id="flow_ew_j2.9" depart="96.00" departLane="E1_1" departPos="5.10" departSpeed="13.52" departDelay="0.00" arrival="222.00" arrivalLane="E3_0" arrivalPos="489.60" arrivalSpeed="12.94" duration="126.00" routeLength="1494.90" waitingTime="0.00" waitingCount="0" stopTime="0.00" timeLoss="15.27" rerouteNo="0" devices="tripinfo_flow_ew_j2.9" vType="passenger" speedFactor="0.97" vaporized=""/>
    <tripinfo id="flow_ew_j2.10" depart="105.00" departLane="E1_0" departPos="5.10" departSpeed="14.31" departDelay="0.00" arrival="224.00" arrivalLane="E3_0" arrivalPos="489.60" arrivalSpeed="13.02" duration="119.00" routeLength="1494.90" waitingTime="3.00" waitingCount="1" stopTime="0.00" timeLoss="14.17" rerouteNo="0" devices="tripinfo_flow_ew_j2.10" vType="passenger" speedFactor="1.03" vaporized=""/>
    <tripinfo id="flow_ns_j2.13" depart="159.00" departLane="E5_1" departPos="5.10" departSpeed="15.55" departDelay="0.28" arrival="228.00" arrivalLane="E6_0" arrivalPos="496.00" arrivalSpeed="15.37" duration="69.00" routeLength="994.90" waitingTime="0.00" waitingCount="0" stopTime="0.00" timeLoss="4.94" rerouteNo="0" devices="tripinfo_flow_ns_j2.13" vType="passenger" speedFactor="1.12" vaporized=""/>
    <tripinfo id="emergency_flow.0" depart="50.00" departLane="E1_1" departPos="6.10" departSpeed="13.08" departDelay="0.00" arrival="230.00" arrivalLane="E4_0" arrivalPos="500.00" arrivalSpeed="12.92" duration="180.00" routeLength="1994.00" waitingTime="9.00" waitingCount="3" stopTime="0.00" timeLoss="26.57" rerouteNo="0" devices="tripinfo_emergency_flow.0" vType="emergency" speedFactor="0.94" vaporized=""/>
    <tripinfo id="flow_ns_j2.12" depart="149.00" departLane="E5_0" departPos="5.10" departSpeed="12.49" departDelay="0.57" arrival="238.00" arrivalLane="E6_0" arrivalPos="496.00" arrivalSpeed="12.37" duration="89.00" routeLength="994.90" waitingTime="0.00" waitingCount="0" stopTime="0.00" timeLoss="8.33" rerouteNo="0" devices="tripinfo_flow_ns_j2.12" vType="passenger" speedFactor="0.90" vaporized=""/>
    <tripinfo id="flow_ew_j2.11" depart="114.00" departLane="E1_0" departPos="5.10" departSpeed="14.42" departDelay="0.00" arrival="243.00" arrivalLane="E3_0" arrivalPos="489.60" arrivalSpeed="14.37" duration="129.00" routeLength="1494.90" waitingTime="10.00" waitingCount="1" stopTime="0.00" timeLoss="24.56" rerouteNo="0" devices="tripinfo_flow_ew_j2.11" vType="passenger" speedFactor="1.04" vaporized=""/>
    <tripinfo id="flow_ew_full.5" depart="80.00" departLane="E1_0" departPos="5.10" departSpeed="16.37" departDelay="0.00" arrival="245.00" arrivalLane="E4_0" arrivalPos="500.00" arrivalSpeed="15.92" duration="165.00" routeLength="1995.00" waitingTime="6.00" waitingCount="1" stopTime="0.00" timeLoss="42.69" rerouteNo="0" devices="tripinfo_flow_ew_full.5" vType="passenger" speedFactor="1.18" vaporized=""/>
    <tripinfo id="flow_ns_j3.10" depart="133.00" departLane="E7_1" departPos="5.10" departSpeed="16.24" departDelay="0.14" arrival="245.00" arrivalLane="E8_0" arrivalPos="496.00" arrivalSpeed="15.59" duration="112.00" routeLength="994.90" waitingTime="41.00" waitingCount="1" stopTime="0.00" timeLoss="50.17" rerouteNo="0" devices="tripinfo_flow_ns_j3.10" vType="passenger" speedFactor="1.17" vaporized=""/>
    <tripinfo id="flow_ew_j2.12" depart="123.00" departLane="E1_0" departPos="5.10" departSpeed="13.85" departDelay="0.00" arrival="246.00" arrivalLane="E3_0" arrivalPos="489.60" arrivalSpeed="13.52" duration="123.00" routeLength="1494.90" waitingTime="3.00" waitingCount="1" stopTime="0.00" timeLoss="14.96" rerouteNo="0" devices="tripinfo_flow_ew_j2.12" vType="passenger" speedFactor="1.00" vaporized=""/>
    <tripinfo id="flow_ns_j3.9" depart="123.00" departLane="E7_1" departPos="5.10" departSpeed="12.51" departDelay="0.43" arrival="254.00" arrivalLane="E8_0" arrivalPos="496.00" arrivalSpeed="11.41" duration="131.00" routeLength="994.90" waitingTime="41.00" waitingCount="1" stopTime="0.00" timeLoss="51.28" rerouteNo="0" devices="tripinfo_flow_ns_j3.9" vType="passenger" speedFactor="0.90" vaporized=""/>
    <tripinfo id="flow_ew_j2.15" depart="150.00" departLane="E1_1" departPos="5.10" departSpeed="15.87" departDelay="0.00" arrival="256.00" arrivalLane="E3_1" arrivalPos="489.60" arrivalSpeed="15.75" duration="106.00" routeLength="1494.90" waitingTime="1.00" waitingCount="1" stopTime="0.00" timeLoss="11.58" rerouteNo="0" devices="tripinfo_flow_ew_j2.15" vType="passenger" speedFactor="1.14" vaporized=""/>
    <tripinfo id="flow_ns_j2.14" depart="170.00" departLane="E5_0" departPos="5.10" departSpeed="12.26" departDelay="1.00" arrival="257.00" arrivalLane="E6_0" arrivalPos="496.00" arrivalSpeed="11.37" duration="87.00" routeLength="994.90" waitingTime="0.00" waitingCount="0" stopTime="0.00" timeLoss="5.62" rerouteNo="0" devices="tripinfo_flow_ns_j2.14" vType="passenger" speedFactor="0.88" vaporized=""/>
    <tripinfo id="flow_ew_full.4" depart="68.00" departLane="E1_1" departPos="5.10" departSpeed="12.12" departDelay="0.00" arrival="258.00" arrivalLane="E4_0" arrivalPos="500.00" arrivalSpeed="11.17" duration="190.00" routeLength="1995.00" waitingTime="8.00" waitingCount="2" stopTime="0.00" timeLoss="24.51" rerouteNo="0" devices="tripinfo_flow_ew_full.4" vType="passenger" speedFactor="0.87" vaporized=""/>
    <tripinfo id="flow_ew_full.6" depart="92.00" departLane="E1_0" departPos="5.10" departSpeed="13.82" departDelay="0.00" arrival="258.00" arrivalLane="E4_1" arrivalPos="500.00" arrivalSpeed="12.98" duration="166.00" routeLength="1995.00" waitingTime="2.00" waitingCount="1" stopTime="0.00" timeLoss="21.37" rerouteNo="0" devices="tripinfo_flow_ew_full.6" vType="passenger" speedFactor="0.99" vaporized=""/>
    <tripinfo id="flow_ew_full.8" depart="116.00" departLane="E1_1" departPos="5.10" departSpeed="14.49" departDelay="0.00" arrival="260.00" arrivalLane="E4_0" arrivalPos="500.00" arrivalSpeed="13.32" duration="144.00" routeLength="1995.00" waitingTime="0.00" waitingCount="0" stopTime="0.00" timeLoss="5.98" rerouteNo="0" devices="tripinfo_flow_ew_full.8" vType="passenger" speedFactor="1.04" vaporized=""/>
    <tripinfo id="flow_ew_j2.13" depart="132.00" departLane="E1_0" departPos="5.10" departSpeed="11.87" departDelay="0.00" arrival="265.00" arrivalLane="E3_0" arrivalPos="489.60" arrivalSpeed="10.60" duration="133.00" routeLength="1494.90" waitingTime="0.00" waitingCount="0" stopTime="0.00" timeLoss="6.90" rerouteNo="0" devices="tripinfo_flow_ew_j2.13" vType="passenger" speedFactor="0.85" vaporized=""/>
    <tripinfo id="flow_ew_j2.14" depart="141.00" departLane="E1_0" departPos="5.10" departSpeed="13.93" departDelay="0.00" arrival="274.00" arrivalLane="E3_0" arrivalPos="489.60" arrivalSpeed="13.59" duration="133.00" routeLength="1494.90" waitingTime="9.00" waitingCount="2" stopTime="0.00" timeLoss="24.85" rerouteNo="0" devices="tripinfo_flow_ew_j2.14" vType="passenger" speedFactor="1.00" vaporized=""/>
    <tripinfo id="flow_ns_j2.16" depart="190.00" departLane="E5_0" departPos="5.10" departSpeed="14.66" departDelay="0.42" arrival="275.00" arrivalLane="E6_0" arrivalPos="496.00" arrivalSpeed="13.50" duration="85.00" routeLength="994.90" waitingTime="7.00" waitingCount="1" stopTime="0.00" timeLoss="17.14" rerouteNo="0" devices="tripinfo_flow_ns_j2.16" vType="passenger" speedFactor="1.06" vaporized=""/>
    <tripinfo id="flow_ns_j2.15" depart="180.00" departLane="E5_1" departPos="5.10" departSpeed="14.20" departDelay="0.71" arrival="277.00" arrivalLane="E6_0" arrivalPos="496.00" arrivalSpeed="12.94" duration="97.00" routeLength="994.90" waitingTime="18.00" waitingCount="1" stopTime="0.00" timeLoss="26.87" rerouteNo="0" devices="tripinfo_flow_ns_j2.15" vType="passenger" speedFactor="1.02" vaporized=""/>
    <tripinfo id="flow_ns_j3.11" depart="144.00" departLane="E7_0" departPos="5.10" departSpeed="13.83" departDelay="0.85" arrival="278.00" arrivalLane="E8_0" arrivalPos="496.00" arrivalSpeed="13.52" duration="134.00" routeLength="994.90" waitingTime="49.00" waitingCount="2" stopTime="0.00" timeLoss="61.86" rerouteNo="0" devices="tripinfo_flow_ns_j3.11" vType="passenger" speedFactor="1.00" vaporized=""/>
    <tripinfo id="flow_ns_j3.12" depart="154.00" departLane="E7_1" departPos="5.10" departSpeed="13.47" departDelay="0.57" arrival="280.00" arrivalLane="E8_1" arrivalPos="496.00" arrivalSpeed="12.26" duration="126.00" routeLength="994.90" waitingTime="38.00" waitingCount="2" stopTime="0.00" timeLoss="51.23" rerouteNo="0" devices="tripinfo_flow_ns_j3.12" vType="passenger" speedFactor="0.97" vaporized=""/>
    <tripinfo id="flow_ns_j3.13" depart="164.00" departLane="E7_1" departPos="5.10" departSpeed="13.71" departDelay="0.28" arrival="280.00" arrivalLane="E8_0" arrivalPos="496.00" arrivalSpeed="13.66" duration="116.00" routeLength="994.90" waitingTime="29.00" waitingCount="2" stopTime="0.00" timeLoss="43.00" rerouteNo="0" devices="tripinfo_flow_ns_j3.13" vType="passenger" speedFactor="0.99" vaporized=""/>
    <tripinfo id="flow_ew_j2.16" depart="159.00" departLane="E1_1" departPos="5.10" departSpeed="15.04" departDelay="0.00" arrival="282.00" arrivalLane="E3_0" arrivalPos="489.60" arrivalSpeed="14.00" duration="123.00" routeLength="1494.90" waitingTime="4.00" waitingCount="2" stopTime="0.00" timeLoss="22.80" rerouteNo="0" devices="tripinfo_flow_ew_j2.16" vType="passenger" speedFactor="1.08" vaporized=""/>
    <tripinfo id="flow_ns_j3.15" depart="185.00" departLane="E7_1" departPos="5.10" departSpeed="14.21" departDelay="0.71" arrival="282.00" arrivalLane="E8_1" arrivalPos="496.00" arrivalSpeed="13.70" duration="97.00" routeLength="994.90" waitingTime="16.00" waitingCount="1" stopTime="0.00" timeLoss="26.18" rerouteNo="0" devices="tripinfo_flow_ns_j3.15" vType="passenger" speedFactor="1.02" vaporized=""/>
    <tripinfo id="flow_ew_full.10" depart="140.00" departLane="E1_1" departPos="5.10" departSpeed="15.22" departDelay="0.00" arrival="283.00" arrivalLane="E4_0" arrivalPos="500.00" arrivalSpeed="14.76" duration="143.00" routeLength="1995.00" waitingTime="0.00" waitingCount="0" stopTime="0.00" timeLoss="11.28" rerouteNo="0" devices="tripinfo_flow_ew_full.10" vType="passenger" speedFactor="1.10" vaporized=""/>
    <tripinfo id="flow_ns_j3.14" depart="175.00" departLane="E7_1" departPos="5.10" departSpeed="12.60" departDelay="1.00" arrival="284.00" arrivalLane="E8_0" arrivalPos="496.00" arrivalSpeed="11.89" duration="109.00" routeLength="994.90" waitingTime="21.00" waitingCount="1" stopTime="0.00" timeLoss="29.30" rerouteNo="0" devices="tripinfo_flow_ns_j3.14" vType="passenger" speedFactor="0.91" vaporized=""/>
    <tripinfo id="flow_ns_j2.17" depart="200.00" departLane="E5_1" departPos="5.10" departSpeed="13.64" departDelay="0.14" arrival="285.00" arrivalLane="E6_0" arrivalPos="496.00" arrivalSpeed="12.38" duration="85.00" routeLength="994.90" waitingTime="0.00" waitingCount="0" stopTime="0.00" timeLoss="11.26" rerouteNo="0" devices="tripinfo_flow_ns_j2.17" vType="passenger" speedFactor="0.98" vaporized=""/>
    <tripinfo id="flow_ns_j3.17" depart="205.00" departLane="E7_1" departPos="5.10" departSpeed="15.10" departDelay="0.14" arrival="286.00" arrivalLane="E8_0" arrivalPos="496.00" arrivalSpeed="14.52" duration="81.00" routeLength="994.90" waitingTime="1.00" waitingCount="1" stopTime="0.00" timeLoss="14.82" rerouteNo="0" devices="tripinfo_flow_ns_j3.17" vType="passenger" speedFactor="1.09" vaporized=""/>
    <tripinfo id="flow_ns_j3.16" depart="195.00" departLane="E7_0" departPos="5.10" departSpeed="13.68" departDelay="0.42" arrival="290.00" arrivalLane="E8_0" arrivalPos="496.00" arrivalSpeed="12.41" duration="95.00" routeLength="994.90" waitingTime="10.00" waitingCount="2" stopTime="0.00" timeLoss="21.93" rerouteNo="0" devices="tripinfo_flow_ns_j3.16" vType="passenger" speedFactor="0.98" vaporized=""/>
    <tripinfo id="flow_ew_full.7" depart="104.00" departLane="E1_1" departPos="5.10" departSpeed="12.51" departDelay="0.00" arrival="291.00" arrivalLane="E4_0" arrivalPos="500.00" arrivalSpeed="11.49" duration="187.00" routeLength="1995.00" waitingTime="13.00" waitingCount="1" stopTime="0.00" timeLoss="26.97" rerouteNo="0" devices="tripinfo_flow_ew_full.7" vType="passenger" speedFactor="0.90" vaporized=""/>