<?xml version="1.0" encoding="UTF-8"?>

<!-- generated on 2025-10-24 21:34:23 by Eclipse SUMO GUI Version 1.24.0
<sumoConfiguration xmlns:xsi="http://www.w3.org/2001/XMLSchema-instance" xsi:noNamespaceSchemaLocation="http://sumo.dlr.de/xsd/sumoConfiguration.xsd">

    <input>
        <net-file value="C:\Users\vishe\OneDrive\Desktop\vanet\vanet_final_v3\sumo_simulation\maps/simple_network.net.xml"/>
        <route-files value="C:\Users\vishe\OneDrive\Desktop\vanet\vanet_final_v3\sumo_simulation\maps/routes.rou.xml"/>
    </input>

    <output>
        <summary-output value="C:\Users\vishe\OneDrive\Desktop\vanet\vanet_final_v3\sumo_simulation\output/summary.xml"/>
        <tripinfo-output value="C:\Users\vishe\OneDrive\Desktop\vanet\vanet_final_v3\sumo_simulation\output/tripinfo.xml"/>
    </output>

    <time>
        <begin value="0"/>
        <end value="3600"/>
        <step-length value="1"/>
    </time>

    <processing>
        <time-to-teleport value="300"/>
    </processing>

    <traci_server>
        <remote-port value="64523"/>
    </traci_server>

    <gui_only>
        <gui-settings-file value="C:\Users\vishe\OneDrive\Desktop\vanet\vanet_final_v3\sumo_simulation\maps/gui-settings.cfg"/>
        <quit-on-end value="false"/>
        <start value="true"/>
    </gui_only>

</sumoConfiguration>
-->

<tripinfos xmlns:xsi="http://www.w3.org/2001/XMLSchema-instance" xsi:noNamespaceSchemaLocation="http://sumo.dlr.de/xsd/tripinfo_file.xsd">
</tripinfos>
