<?xml version="1.0" encoding="UTF-8"?>

<!-- generated on 2025-10-13 20:46:07 by Eclipse SUMO sumo Version 1.18.0
<configuration xmlns:xsi="http://www.w3.org/2001/XMLSchema-instance" xsi:noNamespaceSchemaLocation="http://sumo.dlr.de/xsd/sumoConfiguration.xsd">

    <input>
        <net-file value="/home/mahesh/Desktop/capstone/vanet_final_v3/rl_module/../sumo_simulation/maps/simple_network.net.xml"/>
        <route-files value="/home/mahesh/Desktop/capstone/vanet_final_v3/rl_module/../sumo_simulation/maps/routes.rou.xml"/>
    </input>

    <output>
        <summary-output value="/home/mahesh/Desktop/capstone/vanet_final_v3/rl_module/../sumo_simulation/output/summary.xml"/>
        <tripinfo-output value="/home/mahesh/Desktop/capstone/vanet_final_v3/rl_module/../sumo_simulation/output/tripinfo.xml"/>
    </output>

    <time>
        <begin value="0"/>
        <end value="3600"/>
        <step-length value="1"/>
    </time>

    <processing>
        <time-to-teleport value="300"/>
    </processing>

    <traci_server>
        <remote-port value="34943"/>
    </traci_server>

    <gui_only>
        <gui-settings-file value="/home/mahesh/Desktop/capstone/vanet_final_v3/rl_module/../sumo_simulation/maps/gui-settings.cfg"/>
        <quit-on-end value="false"/>
        <start value="true"/>
    </gui_only>

</configuration>
-->

<tripinfos xmlns:xsi="http://www.w3.org/2001/XMLSchema-instance" xsi:noNamespaceSchemaLocation="http://sumo.dlr.de/xsd/tripinfo_file.xsd">
    <tripinfo id="test_vehicle_4" depart="7.00" departLane="E7_0" departPos="5.10" departSpeed="0.00" departDelay="0.00" arrival="80.00" arrivalLane="E8_0" arrivalPos="496.00" arrivalSpeed="14.87" duration="73.00" routeLength="994.90" waitingTime="0.00" waitingCount="0" stopTime="0.00" timeLoss="5.96" rerouteNo="0" devices="tripinfo_test_vehicle_4" vType="passenger" speedFactor="1.08" vaporized=""/>
    <tripinfo id="test_vehicle_2" depart="3.00" departLane="E5_0" departPos="5.10" departSpeed="0.00" departDelay="0.00" arrival="86.00" arrivalLane="E6_0" arrivalPos="496.00" arrivalSpeed="11.88" duration="83.00" routeLength="994.90" waitingTime="0.00" waitingCount="0" stopTime="0.00" timeLoss="6.36" rerouteNo="0" devices="tripinfo_test_vehicle_2" vType="passenger" speedFactor="0.94" vaporized=""/>
    <tripinfo id="flow_ns_j2.0" depart="25.00" departLane="E5_1" departPos="5.10" departSpeed="13.03" departDelay="0.00" arrival="106.00" arrivalLane="E6_0" arrivalPos="496.00" arrivalSpeed="12.14" duration="81.00" routeLength="994.90" waitingTime="0.00" waitingCount="0" stopTime="0.00" timeLoss="3.81" rerouteNo="0" devices="tripinfo_flow_ns_j2.0" vType="passenger" speedFactor="0.94" vaporized=""/>
    <tripinfo id="flow_ns_j3.1" depart="41.00" departLane="E7_1" departPos="5.10" departSpeed="15.60" departDelay="0.71" arrival="108.00" arrivalLane="E8_0" arrivalPos="496.00" arrivalSpeed="14.80" duration="67.00" routeLength="994.90" waitingTime="0.00" waitingCount="0" stopTime="0.00" timeLoss="2.94" rerouteNo="0" devices="tripinfo_flow_ns_j3.1" vType="passenger" speedFactor="1.12" vaporized=""/>
    <tripinfo id="flow_ns_j2.1" depart="36.00" departLane="E5_1" departPos="5.10" departSpeed="14.54" departDelay="0.71" arrival="109.00" arrivalLane="E6_0" arrivalPos="496.00" arrivalSpeed="14.14" duration="73.00" routeLength="994.90" waitingTime="0.00" waitingCount="0" stopTime="0.00" timeLoss="4.03" rerouteNo="0" devices="tripinfo_flow_ns_j2.1" vType="passenger" speedFactor="1.05" vaporized=""/>
    <tripinfo id="flow_ns_j3.2" depart="51.00" departLane="E7_0" departPos="5.10" departSpeed="16.09" departDelay="0.43" arrival="116.00" arrivalLane="E8_1" arrivalPos="496.00" arrivalSpeed="15.20" duration="65.00" routeLength="994.90" waitingTime="0.00" waitingCount="0" stopTime="0.00" timeLoss="2.55" rerouteNo="0" devices="tripinfo_flow_ns_j3.2" vType="passenger" speedFactor="1.16" vaporized=""/>
    <tripinfo id="flow_ns_j3.0" depart="30.00" departLane="E7_1" departPos="5.10" departSpeed="11.90" departDelay="0.00" arrival="119.00" arrivalLane="E8_0" arrivalPos="496.00" arrivalSpeed="11.17" duration="89.00" routeLength="994.90" waitingTime="0.00" waitingCount="0" stopTime="0.00" timeLoss="4.80" rerouteNo="0" devices="tripinfo_flow_ns_j3.0" vType="passenger" speedFactor="0.86" vaporized=""/>
    <tripinfo id="flow_ns_j2.3" depart="56.00" departLane="E5_1" departPos="5.10" departSpeed="14.03" departDelay="0.14" arrival="131.00" arrivalLane="E6_0" arrivalPos="496.00" arrivalSpeed="12.79" duration="75.00" routeLength="994.90" waitingTime="0.00" waitingCount="0" stopTime="0.00" timeLoss="3.53" rerouteNo="0" devices="tripinfo_flow_ns_j2.3" vType="passenger" speedFactor="1.01" vaporized=""/>
    <tripinfo id="test_vehicle_1" depart="1.00" departLane="E1_0" departPos="5.10" departSpeed="0.00" departDelay="0.00" arrival="136.00" arrivalLane="E3_0" arrivalPos="489.60" arrivalSpeed="13.50" duration="135.00" routeLength="1494.90" waitingTime="19.00" waitingCount="1" stopTime="0.00" timeLoss="33.17" rerouteNo="0" devices="tripinfo_test_vehicle_1" vType="passenger" speedFactor="1.06" vaporized=""/>
    <tripinfo id="flow_ns_j2.2" depart="46.00" departLane="E5_1" departPos="5.10" departSpeed="12.20" departDelay="0.43" arrival="137.00" arrivalLane="E6_0" arrivalPos="496.00" arrivalSpeed="11.16" duration="91.00" routeLength="994.90" waitingTime="0.00" waitingCount="0" stopTime="0.00" timeLoss="9.22" rerouteNo="0" devices="tripinfo_flow_ns_j2.2" vType="passenger" speedFactor="0.88" vaporized=""/>
    <tripinfo id="test_vehicle_3" depart="5.00" departLane="E1_0" departPos="5.10" departSpeed="0.00" departDelay="0.00" arrival="140.00" arrivalLane="E3_0" arrivalPos="489.60" arrivalSpeed="13.44" duration="135.00" routeLength="1494.90" waitingTime="8.00" waitingCount="1" stopTime="0.00" timeLoss="28.32" rerouteNo="0" devices="tripinfo_test_vehicle_3" vType="passenger" speedFactor="1.01" vaporized=""/>
    <tripinfo id="flow_ns_j3.3" depart="61.00" departLane="E7_1" departPos="5.10" departSpeed="12.36" departDelay="0.14" arrival="148.00" arrivalLane="E8_0" arrivalPos="496.00" arrivalSpeed="11.51" duration="87.00" routeLength="994.90" waitingTime="0.00" waitingCount="0" stopTime="0.00" timeLoss="5.58" rerouteNo="0" devices="tripinfo_flow_ns_j3.3" vType="passenger" speedFactor="0.89" vaporized=""/>
    <tripinfo id="flow_ew_j2.0" depart="15.00" departLane="E1_1" departPos="5.10" departSpeed="11.54" departDelay="0.00" arrival="167.00" arrivalLane="E3_0" arrivalPos="489.60" arrivalSpeed="10.65" duration="152.00" routeLength="1494.90" waitingTime="11.00" waitingCount="1" stopTime="0.00" timeLoss="22.18" rerouteNo="0" devices="tripinfo_flow_ew_j2.0" vType="passenger" speedFactor="0.83" vaporized=""/>
    <tripinfo id="flow_ew_j2.3" depart="42.00" departLane="E1_1" departPos="5.10" departSpeed="13.77" departDelay="0.00" arrival="170.00" arrivalLane="E3_0" arrivalPos="489.60" arrivalSpeed="12.97" duration="128.00" routeLength="1494.90" waitingTime="1.00" waitingCount="1" stopTime="0.00" timeLoss="18.55" rerouteNo="0" devices="tripinfo_flow_ew_j2.3" vType="passenger" speedFactor="0.99" vaporized=""/>
    <tripinfo id="emergency_1" depart="10.00" departLane="E1_0" departPos="6.10" departSpeed="0.00" departDelay="0.00" arrival="171.00" arrivalLane="E4_0" arrivalPos="500.00" arrivalSpeed="14.12" duration="161.00" routeLength="1994.00" waitingTime="8.00" waitingCount="2" stopTime="0.00" timeLoss="21.58" rerouteNo="0" devices="tripinfo_emergency_1" vType="emergency" speedFactor="1.03" vaporized=""/>
    <tripinfo id="flow_ew_full.0" depart="20.00" departLane="E1_0" departPos="5.10" departSpeed="14.53" departDelay="0.00" arrival="175.00" arrivalLane="E4_0" arrivalPos="500.00" arrivalSpeed="13.92" duration="155.00" routeLength="1995.00" waitingTime="1.00" waitingCount="1" stopTime="0.00" timeLoss="16.93" rerouteNo="0" devices="tripinfo_flow_ew_full.0" vType="passenger" speedFactor="1.05" vaporized=""/>
    <tripinfo id="flow_ns_j2.5" depart="77.00" departLane="E5_1" departPos="5.10" departSpeed="15.72" departDelay="0.57" arrival="175.00" arrivalLane="E6_0" arrivalPos="496.00" arrivalSpeed="14.81" duration="98.00" routeLength="994.90" waitingTime="26.00" waitingCount="1" stopTime="0.00" timeLoss="34.12" rerouteNo="0" devices="tripinfo_flow_ns_j2.5" vType="passenger" speedFactor="1.13" vaporized=""/>
    <tripinfo id="flow_ns_j2.7" depart="98.00" departLane="E5_1" departPos="5.10" departSpeed="16.39" departDelay="1.00" arrival="176.00" arrivalLane="E6_1" arrivalPos="496.00" arrivalSpeed="16.36" duration="78.00" routeLength="994.90" waitingTime="6.00" waitingCount="1" stopTime="0.00" timeLoss="16.59" rerouteNo="0" devices="tripinfo_flow_ns_j2.7" vType="passenger" speedFactor="1.18" vaporized=""/>
    <tripinfo id="flow_ew_j2.1" depart="24.00" departLane="E1_1" departPos="5.10" departSpeed="12.31" departDelay="0.00" arrival="177.00" arrivalLane="E3_0" arrivalPos="489.60" arrivalSpeed="11.33" duration="153.00" routeLength="1494.90" waitingTime="14.00" waitingCount="1" stopTime="0.00" timeLoss="30.70" rerouteNo="0" devices="tripinfo_flow_ew_j2.1" vType="passenger" speedFactor="0.89" vaporized=""/>
    <tripinfo id="flow_ns_j2.6" depart="87.00" departLane="E5_0" departPos="5.10" departSpeed="16.28" departDelay="0.28" arrival="177.00" arrivalLane="E6_1" arrivalPos="496.00" arrivalSpeed="16.27" duration="90.00" routeLength="994.90" waitingTime="17.00" waitingCount="1" stopTime="0.00" timeLoss="28.79" rerouteNo="0" devices="tripinfo_flow_ns_j2.6" vType="passenger" speedFactor="1.17" vaporized=""/>
    <tripinfo id="flow_ew_j2.2" depart="33.00" departLane="E1_0" departPos="5.10" departSpeed="14.26" departDelay="0.00" arrival="179.00" arrivalLane="E3_1" arrivalPos="489.60" arrivalSpeed="14.03" duration="146.00" routeLength="1494.90" waitingTime="13.00" waitingCount="2" stopTime="0.00" timeLoss="40.30" rerouteNo="0" devices="tripinfo_flow_ew_j2.2" vType="passenger" speedFactor="1.03" vaporized=""/>
    <tripinfo id="flow_ns_j2.4" depart="67.00" departLane="E5_0" departPos="5.10" departSpeed="11.47" departDelay="0.86" arrival="187.00" arrivalLane="E6_0" arrivalPos="496.00" arrivalSpeed="10.89" duration="120.00" routeLength="994.90" waitingTime="24.00" waitingCount="1" stopTime="0.00" timeLoss="32.75" rerouteNo="0" devices="tripinfo_flow_ns_j2.4" vType="passenger" speedFactor="0.83" vaporized=""/>
    <tripinfo id="flow_ns_j3.5" depart="82.00" departLane="E7_1" departPos="5.10" departSpeed="16.03" departDelay="0.57" arrival="187.00" arrivalLane="E8_0" arrivalPos="496.00" arrivalSpeed="15.35" duration="105.00" routeLength="994.90" waitingTime="34.00" waitingCount="1" stopTime="0.00" timeLoss="42.35" rerouteNo="0" devices="tripinfo_flow_ns_j3.5" vType="passenger" speedFactor="1.15" vaporized=""/>
    <tripinfo id="flow_ns_j2.9" depart="118.00" departLane="E5_1" departPos="5.10" departSpeed="15.11" departDelay="0.43" arrival="187.00" arrivalLane="E6_1" arrivalPos="496.00" arrivalSpeed="14.32" duration="69.00" routeLength="994.90" waitingTime="0.00" waitingCount="0" stopTime="0.00" timeLoss="3.15" rerouteNo="0" devices="tripinfo_flow_ns_j2.9" vType="passenger" speedFactor="1.09" vaporized=""/>
    <tripinfo id="flow_ew_full.1" depart="32.00" departLane="E1_1" departPos="5.10" departSpeed="15.15" departDelay="0.00" arrival="189.00" arrivalLane="E4_0" arrivalPos="500.00" arrivalSpeed="14.98" duration="157.00" routeLength="1995.00" waitingTime="13.00" waitingCount="1" stopTime="0.00" timeLoss="25.18" rerouteNo="0" devices="tripinfo_flow_ew_full.1" vType="passenger" speedFactor="1.09" vaporized=""/>
    <tripinfo id="flow_ns_j2.8" depart="108.00" departLane="E5_0" departPos="5.10" departSpeed="13.29" departDelay="0.71" arrival="189.00" arrivalLane="E6_0" arrivalPos="496.00" arrivalSpeed="12.99" duration="81.00" routeLength="994.90" waitingTime="0.00" waitingCount="0" stopTime="0.00" timeLoss="5.81" rerouteNo="0" devices="tripinfo_flow_ns_j2.8" vType="passenger" speedFactor="0.96" vaporized=""/>
    <tripinfo id="flow_ns_j3.7" depart="103.00" departLane="E7_1" departPos="5.10" departSpeed="15.31" departDelay="1.00" arrival="190.00" arrivalLane="E8_0" arrivalPos="496.00" arrivalSpeed="14.12" duration="87.00" routeLength="994.90" waitingTime="13.00" waitingCount="1" stopTime="0.00" timeLoss="21.43" rerouteNo="0" devices="tripinfo_flow_ns_j3.7" vType="passenger" speedFactor="1.10" vaporized=""/>
    <tripinfo id="flow_ns_j3.4" depart="72.00" departLane="E7_1" departPos="5.10" departSpeed="13.18" departDelay="0.86" arrival="194.00" arrivalLane="E8_0" arrivalPos="496.00" arrivalSpeed="12.45" duration="122.00" routeLength="994.90" waitingTime="38.00" waitingCount="1" stopTime="0.00" timeLoss="45.74" rerouteNo="0" devices="tripinfo_flow_ns_j3.4" vType="passenger" speedFactor="0.95" vaporized=""/>
    <tripinfo id="flow_ns_j3.6" depart="92.00" departLane="E7_0" departPos="5.10" departSpeed="14.16" departDelay="0.28" arrival="194.00" arrivalLane="E8_1" arrivalPos="496.00" arrivalSpeed="13.99" duration="102.00" routeLength="994.90" waitingTime="20.00" waitingCount="1" stopTime="0.00" timeLoss="30.88" rerouteNo="0" devices="tripinfo_flow_ns_j3.6" vType="passenger" speedFactor="1.02" vaporized=""/>
    <tripinfo id="flow_ew_j2.5" depart="60.00" departLane="E1_0" departPos="5.10" departSpeed="13.54" departDelay="0.00" arrival="197.00" arrivalLane="E3_0" arrivalPos="489.60" arrivalSpeed="12.88" duration="137.00" routeLength="1494.90" waitingTime="9.00" waitingCount="2" stopTime="0.00" timeLoss="26.58" rerouteNo="0" devices="tripinfo_flow_ew_j2.5" vType="passenger" speedFactor="0.97" vaporized=""/>
    <tripinfo id="flow_ew_j2.4" depart="51.00" departLane="E1_0" departPos="5.10" departSpeed="13.00" departDelay="0.00" arrival="199.00" arrivalLane="E3_0" arrivalPos="489.60" arrivalSpeed="12.83" duration="148.00" routeLength="1494.90" waitingTime="16.00" waitingCount="2" stopTime="0.00" timeLoss="32.92" rerouteNo="0" devices="tripinfo_flow_ew_j2.4" vType="passenger" speedFactor="0.94" vaporized=""/>
    <tripinfo id="flow_ew_j2.6" depart="69.00" departLane="E1_0" departPos="5.10" departSpeed="12.74" departDelay="0.00" arrival="202.00" arrivalLane="E3_0" arrivalPos="489.60" arrivalSpeed="12.26" duration="133.00" routeLength="1494.90" waitingTime="0.00" waitingCount="0" stopTime="0.00" timeLoss="15.00" rerouteNo="0" devices="tripinfo_flow_ew_j2.6" vType="passenger" speedFactor="0.92" vaporized=""/>
    <tripinfo id="emergency_flow.0" depart="50.00" departLane="E1_1" departPos="6.10" departSpeed="13.08" departDelay="0.00" arrival="207.00" arrivalLane="E4_0" arrivalPos="500.00" arrivalSpeed="12.48" duration="157.00" routeLength="1994.00" waitingTime="0.00" waitingCount="0" stopTime="0.00" timeLoss="4.38" rerouteNo="0" devices="tripinfo_emergency_flow.0" vType="emergency" speedFactor="0.94" vaporized=""/>
    <tripinfo id="flow_ns_j3.10" depart="133.00" departLane="E7_1" departPos="5.10" departSpeed="16.24" departDelay="0.14" arrival="212.00" arrivalLane="E8_0" arrivalPos="496.00" arrivalSpeed="16.05" duration="79.00" routeLength="994.90" waitingTime="7.00" waitingCount="1" stopTime="0.00" timeLoss="16.93" rerouteNo="0" devices="tripinfo_flow_ns_j3.10" vType="passenger" speedFactor="1.17" vaporized=""/>
    <tripinfo id="flow_ew_full.2" depart="44.00" departLane="E1_0" departPos="5.10" departSpeed="12.87" departDelay="0.00" arrival="213.00" arrivalLane="E4_0" arrivalPos="500.00" arrivalSpeed="12.01" duration="169.00" routeLength="1995.00" waitingTime="0.00" waitingCount="0" stopTime="0.00" timeLoss="13.72" rerouteNo="0" devices="tripinfo_flow_ew_full.2" vType="passenger" speedFactor="0.93" vaporized=""/>
    <tripinfo id="flow_ns_j3.8" depart="113.00" departLane="E7_1" departPos="5.10" departSpeed="15.17" departDelay="0.71" arrival="214.00" arrivalLane="E8_0" arrivalPos="496.00" arrivalSpeed="14.25" duration="101.00" routeLength="994.90" waitingTime="20.00" waitingCount="2" stopTime="0.00" timeLoss="35.32" rerouteNo="0" devices="tripinfo_flow_ns_j3.8" vType="passenger" speedFactor="1.09" vaporized=""/>
    <tripinfo id="flow_ew_full.3" depart="56.00" departLane="E1_1" departPos="5.10" departSpeed="14.14" departDelay="0.00" arrival="216.00" arrivalLane="E4_0" arrivalPos="500.00" arrivalSpeed="13.26" duration="160.00" routeLength="1995.00" waitingTime="7.00" waitingCount="1" stopTime="0.00" timeLoss="18.64" rerouteNo="0" devices="tripinfo_flow_ew_full.3" vType="passenger" speedFactor="1.02" vaporized=""/>
    <tripinfo id="flow_ns_j2.11" depart="139.00" departLane="E5_1" departPos="5.10" departSpeed="14.12" departDelay="0.85" arrival="220.00" arrivalLane="E6_0" arrivalPos="496.00" arrivalSpeed="13.63" duration="81.00" routeLength="994.90" waitingTime="2.00" waitingCount="1" stopTime="0.00" timeLoss="10.12" rerouteNo="0" devices="tripinfo_flow_ns_j2.11" vType="passenger" speedFactor="1.02" vaporized=""/>
    <tripinfo id="flow_ns_j3.9" depart="123.00" departLane="E7_1" departPos="5.10" departSpeed="12.51" departDelay="0.43" arrival="223.00" arrivalLane="E8_0" arrivalPos="496.00" arrivalSpeed="11.94" duration="100.00" routeLength="994.90" waitingTime="10.00" waitingCount="1" stopTime="0.00" timeLoss="20.13" rerouteNo="0" devices="tripinfo_flow_ns_j3.9" vType="passenger" speedFactor="0.90" vaporized=""/>
    <tripinfo id="flow_ns_j2.10" depart="128.00" departLane="E5_0" departPos="5.10" departSpeed="11.81" departDelay="0.14" arrival="227.00" arrivalLane="E6_0" arrivalPos="496.00" arrivalSpeed="10.99" duration="99.00" routeLength="994.90" waitingTime="6.00" waitingCount="1" stopTime="0.00" timeLoss="14.69" rerouteNo="0" devices="tripinfo_flow_ns_j2.10" vType="passenger" speedFactor="0.85" vaporized=""/>
    <tripinfo id="flow_ew_j2.7" depart="78.00" departLane="E1_1" departPos="5.10" departSpeed="12.94" departDelay="0.00" arrival="229.00" arrivalLane="E3_0" arrivalPos="489.60" arrivalSpeed="12.57" duration="151.00" routeLength="1494.90" waitingTime="23.00" waitingCount="1" stopTime="0.00" timeLoss="34.74" rerouteNo="0" devices="tripinfo_flow_ew_j2.7" vType="passenger" speedFactor="0.93" vaporized=""/>
    <tripinfo id="flow_ew_full.5" depart="80.00" departLane="E1_0" departPos="5.10" departSpeed="16.37" departDelay="0.00" arrival="230.00" arrivalLane="E4_0" arrivalPos="500.00" arrivalSpeed="15.93" duration="150.00" routeLength="1995.00" waitingTime="0.00" waitingCount="0" stopTime="0.00" timeLoss="27.24" rerouteNo="0" devices="tripinfo_flow_ew_full.5" vType="passenger" speedFactor="1.18" vaporized=""/>
    <tripinfo id="flow_ew_j2.8" depart="87.00" departLane="E1_1" departPos="5.10" departSpeed="13.96" departDelay="0.00" arrival="230.00" arrivalLane="E3_1" arrivalPos="489.60" arrivalSpeed="12.93" duration="143.00" routeLength="1494.90" waitingTime="19.00" waitingCount="2" stopTime="0.00" timeLoss="35.55" rerouteNo="0" devices="tripinfo_flow_ew_j2.8" vType="passenger" speedFactor="1.01" vaporized=""/>
    <tripinfo id="flow_ns_j3.11" depart="144.00" departLane="E7_0" departPos="5.10" departSpeed="13.83" departDelay="0.85" arrival="237.00" arrivalLane="E8_0" arrivalPos="496.00" arrivalSpeed="13.79" duration="93.00" routeLength="994.90" waitingTime="12.00" waitingCount="1" stopTime="0.00" timeLoss="20.60" rerouteNo="0" devices="tripinfo_flow_ns_j3.11" vType="passenger" speedFactor="1.00" vaporized=""/>
    <tripinfo id="flow_ns_j3.12" depart="154.00" departLane="E7_1" departPos="5.10" departSpeed="13.47" departDelay="0.57" arrival="238.00" arrivalLane="E8_1" arrivalPos="496.00" arrivalSpeed="12.83" duration="84.00" routeLength="994.90" waitingTime="2.00" waitingCount="1" stopTime="0.00" timeLoss="9.65" rerouteNo="0" devices="tripinfo_flow_ns_j3.12" vType="passenger" speedFactor="0.97" vaporized=""/>
    <tripinfo id="flow_ns_j2.13" depart="159.00" departLane="E5_1" departPos="5.10" departSpeed="15.55" departDelay="0.28" arrival="238.00" arrivalLane="E6_0" arrivalPos="496.00" arrivalSpeed="14.65" duration="79.00" routeLength="994.90" waitingTime="5.00" waitingCount="1" stopTime="0.00" timeLoss="14.51" rerouteNo="0" devices="tripinfo_flow_ns_j2.13" vType="passenger" speedFactor="1.12" vaporized=""/>
    <tripinfo id="flow_ns_j2.12" depart="149.00" departLane="E5_0" departPos="5.10" departSpeed="12.49" departDelay="0.57" arrival="246.00" arrivalLane="E6_0" arrivalPos="496.00" arrivalSpeed="12.07" duration="97.00" routeLength="994.90" waitingTime="9.00" waitingCount="1" stopTime="0.00" timeLoss="17.07" rerouteNo="0" devices="tripinfo_flow_ns_j2.12" vType="passenger" speedFactor="0.90" vaporized=""/>
    <tripinfo id="flow_ns_j3.13" depart="164.00" departLane="E7_1" departPos="5.10" departSpeed="13.71" departDelay="0.28" arrival="252.00" arrivalLane="E8_0" arrivalPos="496.00" arrivalSpeed="13.32" duration="88.00" routeLength="994.90" waitingTime="6.00" waitingCount="1" stopTime="0.00" timeLoss="15.13" rerouteNo="0" devices="tripinfo_flow_ns_j3.13" vType="passenger" speedFactor="0.99" vaporized=""/>
    <tripinfo id="flow_ns_j3.14" depart="175.00" departLane="E7_1" departPos="5.10" departSpeed="12.60" departDelay="1.00" arrival="259.00" arrivalLane="E8_0" arrivalPos="496.00" arrivalSpeed="11.45" duration="84.00" routeLength="994.90" waitingTime="0.00" waitingCount="0" stopTime="0.00" timeLoss="4.51" rerouteNo="0" devices="tripinfo_flow_ns_j3.14" vType="passenger" speedFactor="0.91" vaporized=""/>
    <tripinfo id="flow_ew_full.6" depart="92.00" departLane="E1_0" departPos="5.10" departSpeed="13.82" departDelay="0.00" arrival="266.00" arrivalLane="E4_0" arrivalPos="500.00" arrivalSpeed="13.04" duration="174.00" routeLength="1995.00" waitingTime="17.00" waitingCount="1" stopTime="0.00" timeLoss="29.39" rerouteNo="0" devices="tripinfo_flow_ew_full.6" vType="passenger" speedFactor="0.99" vaporized=""/>
    <tripinfo id="flow_ns_j2.15" depart="180.00" departLane="E5_1" departPos="5.10" departSpeed="14.20" departDelay="0.71" arrival="270.00" arrivalLane="E6_0" arrivalPos="496.00" arrivalSpeed="13.28" duration="90.00" routeLength="994.90" waitingTime="11.00" waitingCount="1" stopTime="0.00" timeLoss="19.09" rerouteNo="0" devices="tripinfo_flow_ns_j2.15" vType="passenger" speedFactor="1.02" vaporized=""/>
    <tripinfo id="flow_ns_j2.16" depart="190.00" departLane="E5_0" departPos="5.10" departSpeed="14.66" departDelay="0.42" arrival="270.00" arrivalLane="E6_1" arrivalPos="496.00" arrivalSpeed="13.97" duration="80.00" routeLength="994.90" waitingTime="3.00" waitingCount="1" stopTime="0.00" timeLoss="11.95" rerouteNo="0" devices="tripinfo_flow_ns_j2.16" vType="passenger" speedFactor="1.06" vaporized=""/>
    <tripinfo id="flow_ew_j2.10" depart="105.00" departLane="E1_0" departPos="5.10" departSpeed="14.31" departDelay="0.00" arrival="271.00" arrivalLane="E3_0" arrivalPos="489.60" arrivalSpeed="13.44" duration="166.00" routeLength="1494.90" waitingTime="45.00" waitingCount="2" stopTime="0.00" timeLoss="61.39" rerouteNo="0" devices="tripinfo_flow_ew_j2.10" vType="passenger" speedFactor="1.03" vaporized=""/>
    <tripinfo id="flow_ns_j2.14" depart="170.00" departLane="E5_0" departPos="5.10" departSpeed="12.26" departDelay="1.00" arrival="275.00" arrivalLane="E6_0" arrivalPos="496.00" arrivalSpeed="11.80" duration="105.00" routeLength="994.90" waitingTime="14.00" waitingCount="1" stopTime="0.00" timeLoss="23.78" rerouteNo="0" devices="tripinfo_flow_ns_j2.14" vType="passenger" speedFactor="0.88" vaporized=""/>
    <tripinfo id="flow_ew_full.4" depart="68.00" departLane="E1_1" departPos="5.10" departSpeed="12.12" departDelay="0.00" arrival="276.00" arrivalLane="E4_0" arrivalPos="500.00" arrivalSpeed="11.38" duration="208.00" routeLength="1995.00" waitingTime="22.00" waitingCount="1" stopTime="0.00" timeLoss="42.93" rerouteNo="0" devices="tripinfo_flow_ew_full.4" vType="passenger" speedFactor="0.87" vaporized=""/>
    <tripinfo id="flow_ew_j2.9" depart="96.00" departLane="E1_1" departPos="5.10" departSpeed="13.52" departDelay="0.00" arrival="276.00" arrivalLane="E3_0" arrivalPos="489.60" arrivalSpeed="12.76" duration="180.00" routeLength="1494.90" waitingTime="51.00" waitingCount="2" stopTime="0.00" timeLoss="68.56" rerouteNo="0" devices="tripinfo_flow_ew_j2.9" vType="passenger" speedFactor="0.97" vaporized=""/>
    <tripinfo id="flow_ew_j2.11" depart="114.00" departLane="E1_0" departPos="5.10" departSpeed="14.42" departDelay="0.00" arrival="277.00" arrivalLane="E3_0" arrivalPos="489.60" arrivalSpeed="13.25" duration="163.00" routeLength="1494.90" waitingTime="34.00" waitingCount="3" stopTime="0.00" timeLoss="59.12" rerouteNo="0" devices="tripinfo_flow_ew_j2.11" vType="passenger" speedFactor="1.04" vaporized=""/>
    <tripinfo id="flow_ew_j2.12" depart="123.00" departLane="E1_0" departPos="5.10" departSpeed="13.85" departDelay="0.00" arrival="279.00" arrivalLane="E3_0" arrivalPos="489.60" arrivalSpeed="13.76" duration="156.00" routeLength="1494.90" waitingTime="23.00" waitingCount="3" stopTime="0.00" timeLoss="47.63" rerouteNo="0" devices="tripinfo_flow_ew_j2.12" vType="passenger" speedFactor="1.00" vaporized=""/>
    <tripinfo id="flow_ns_j3.15" depart="185.00" departLane="E7_1" departPos="5.10" departSpeed="14.21" departDelay="0.71" arrival="284.00" arrivalLane="E8_0" arrivalPos="496.00" arrivalSpeed="13.22" duration="99.00" routeLength="994.90" waitingTime="21.00" waitingCount="1" stopTime="0.00" timeLoss="28.94" rerouteNo="0" devices="tripinfo_flow_ns_j3.15" vType="passenger" speedFactor="1.02" vaporized=""/>
    <tripinfo id="flow_ns_j3.16" depart="195.00" departLane="E7_0" departPos="5.10" departSpeed="13.68" departDelay="0.42" arrival="286.00" arrivalLane="E8_1" arrivalPos="496.00" arrivalSpeed="12.41" duration="91.00" routeLength="994.90" waitingTime="8.00" waitingCount="1" stopTime="0.00" timeLoss="17.50" rerouteNo="0" devices="tripinfo_flow_ns_j3.16" vType="passenger" speedFactor="0.98" vaporized=""/>
    <tripinfo id="flow_ns_j3.17" depart="205.00" departLane="E7_1" departPos="5.10" departSpeed="15.10" departDelay="0.14" arrival="286.00" arrivalLane="E8_0" arrivalPos="496.00" arrivalSpeed="14.62" duration="81.00" routeLength="994.90" waitingTime="4.00" waitingCount="1" stopTime="0.00" timeLoss="14.65" rerouteNo="0" devices="tripinfo_flow_ns_j3.17" vType="passenger" speedFactor="1.09" vaporized=""/>
    <tripinfo id="flow_ew_j2.14" depart="141.00" departLane="E1_0" departPos="5.10" departSpeed="13.93" departDelay="0.00" arrival="298.00" arrivalLane="E3_1" arrivalPos="489.60" arrivalSpeed="13.63" duration="157.00" routeLength="1494.90" waitingTime="30.00" waitingCount="2" stopTime="0.00" timeLoss="49.42" rerouteNo="0" devices="tripinfo_flow_ew_j2.14" vType="passenger" speedFactor="1.00" vaporized=""/>
    <tripinfo id="flow_ns_j2.18" depart="211.00" departLane="E5_1" departPos="5.10" departSpeed="14.37" departDelay="0.85" arrival="300.00" arrivalLane="E6_1" arrivalPos="496.00" arrivalSpeed="14.09" duration="89.00" routeLength="994.90" waitingTime="11.00" waitingCount="1" stopTime="0.00" timeLoss="19.34" rerouteNo="0" devices="tripinfo_flow_ns_j2.18" vType="passenger" speedFactor="1.03" vaporized=""/>
    <tripinfo id="flow_ns_j2.17" depart="200.00" departLane="E5_1" departPos="5.10" departSpeed="13.64" departDelay="0.14" arrival="301.00" arrivalLane="E6_0" arrivalPos="496.00" arrivalSpeed="12.41" duration="101.00" routeLength="994.90" waitingTime="19.00" waitingCount="1" stopTime="0.00" timeLoss="27.89" rerouteNo="0" devices="tripinfo_flow_ns_j2.17" vType="passenger" speedFactor="0.98" vaporized=""/>
    <tripinfo id="flow_ns_j2.19" depart="221.00" departLane="E5_1" departPos="5.10" departSpeed="15.94" departDelay="0.57" arrival="302.00" arrivalLane="E6_1" arrivalPos="496.00" arrivalSpeed="15.86" duration="81.00" routeLength="994.90" waitingTime="5.00" waitingCount="1" stopTime="0.00" timeLoss="17.72" rerouteNo="0" devices="tripinfo_flow_ns_j2.19" vType="passenger" speedFactor="1.15" vaporized=""/>
    <tripinfo id="flow_ns_j3.19" depart="226.00" departLane="E7_1" departPos="5.10" departSpeed="14.48" departDelay="0.57" arrival="303.00" arrivalLane="E8_0" arrivalPos="496.00" arrivalSpeed="14.10" duration="77.00" routeLength="994.90" waitingTime="0.00" waitingCount="0" stopTime="0.00" timeLoss="8.09" rerouteNo="0" devices="tripinfo_flow_ns_j3.19" vType="passenger" speedFactor="1.04" vaporized=""/>
    <tripinfo id="flow_ns_j2.20" depart="231.00" departLane="E5_0" departPos="5.10" departSpeed="14.20" departDelay="0.28" arrival="305.00" arrivalLane="E6_0" arrivalPos="496.00" arrivalSpeed="13.60" duration="74.00" routeLength="994.90" waitingTime="0.00" waitingCount="0" stopTime="0.00" timeLoss="3.46" rerouteNo="0" devices="tripinfo_flow_ns_j2.20" vType="passenger" speedFactor="1.02" vaporized=""/>
    <tripinfo id="flow_ew_full.8" depart="116.00" departLane="E1_1" departPos="5.10" departSpeed="14.49" departDelay="0.00" arrival="307.00" arrivalLane="E4_0" arrivalPos="500.00" arrivalSpeed="13.54" duration="191.00" routeLength="1995.00" waitingTime="35.00" waitingCount="2" stopTime="0.00" timeLoss="52.59" rerouteNo="0" devices="tripinfo_flow_ew_full.8" vType="passenger" speedFactor="1.04" vaporized=""/>
    <tripinfo id="flow_ns_j3.18" depart="216.00" departLane="E7_0" departPos="5.10" departSpeed="13.43" departDelay="0.85" arrival="307.00" arrivalLane="E8_0" arrivalPos="496.00" arrivalSpeed="12.36" duration="91.00" routeLength="994.90" waitingTime="7.00" waitingCount="1" stopTime="0.00" timeLoss="16.05" rerouteNo="0" devices="tripinfo_flow_ns_j3.18" vType="passenger" speedFactor="0.97" vaporized=""/>
    <tripinfo id="flow_ew_j2.15" depart="150.00" departLane="E1_1" departPos="5.10" departSpeed="15.87" departDelay="0.00" arrival="311.00" arrivalLane="E3_0" arrivalPos="489.60" arrivalSpeed="15.68" duration="161.00" routeLength="1494.90" waitingTime="36.00" waitingCount="3" stopTime="0.00" timeLoss="66.48" rerouteNo="0" devices="tripinfo_flow_ew_j2.15" vType="passenger" speedFactor="1.14" vaporized=""/>