<?xml version="1.0" encoding="UTF-8"?>

<!-- generated on 2025-10-14 15:29:52 by Eclipse SUMO sumo Version 1.24.0
<sumoConfiguration xmlns:xsi="http://www.w3.org/2001/XMLSchema-instance" xsi:noNamespaceSchemaLocation="http://sumo.dlr.de/xsd/sumoConfiguration.xsd">

    <input>
        <net-file value="maps/simple_network.net.xml"/>
        <route-files value="maps/routes.rou.xml"/>
    </input>

    <output>
        <summary-output value="output/summary.xml"/>
        <tripinfo-output value="output/tripinfo.xml"/>
    </output>

    <time>
        <begin value="0"/>
        <end value="3600"/>
        <step-length value="0.1"/>
    </time>

    <processing>
        <time-to-teleport value="300"/>
    </processing>

    <traci_server>
        <remote-port value="51411"/>
    </traci_server>

    <gui_only>
        <gui-settings-file value="maps/gui-settings.cfg"/>
        <quit-on-end value="false"/>
        <start value="true"/>
    </gui_only>

</sumoConfiguration>
-->

<tripinfos xmlns:xsi="http://www.w3.org/2001/XMLSchema-instance" xsi:noNamespaceSchemaLocation="http://sumo.dlr.de/xsd/tripinfo_file.xsd">
    <tripinfo id="test_vehicle_4" depart="7.00" departLane="E7_0" departPos="5.10" departSpeed="0.00" departDelay="0.00" arrival="77.10" arrivalLane="E8_0" arrivalPos="496.00" arrivalSpeed="15.00" duration="70.10" routeLength="994.90" waitingTime="0.00" waitingCount="0" stopTime="0.00" timeLoss="3.88" rerouteNo="0" devices="tripinfo_test_vehicle_4" vType="passenger" speedFactor="1.08" vaporized=""/>
    <tripinfo id="test_vehicle_3" depart="5.00" departLane="E1_0" departPos="5.10" departSpeed="0.00" departDelay="0.00" arrival="119.20" arrivalLane="E3_0" arrivalPos="489.60" arrivalSpeed="13.91" duration="114.20" routeLength="1494.90" waitingTime="0.00" waitingCount="0" stopTime="0.00" timeLoss="7.61" rerouteNo="0" devices="tripinfo_test_vehicle_3" vType="passenger" speedFactor="1.01" vaporized=""/>
    <tripinfo id="test_vehicle_1" depart="1.00" departLane="E1_0" departPos="5.10" departSpeed="0.00" departDelay="0.00" arrival="120.70" arrivalLane="E3_0" arrivalPos="489.60" arrivalSpeed="14.65" duration="119.70" routeLength="1494.90" waitingTime="5.10" waitingCount="1" stopTime="0.00" timeLoss="18.09" rerouteNo="0" devices="tripinfo_test_vehicle_1" vType="passenger" speedFactor="1.06" vaporized=""/>
    <tripinfo id="flow_ns_j3.1" depart="40.30" departLane="E7_1" departPos="5.10" departSpeed="15.60" departDelay="0.01" arrival="126.60" arrivalLane="E8_0" arrivalPos="496.00" arrivalSpeed="15.56" duration="86.30" routeLength="994.90" waitingTime="16.80" waitingCount="1" stopTime="0.00" timeLoss="22.43" rerouteNo="0" devices="tripinfo_flow_ns_j3.1" vType="passenger" speedFactor="1.12" vaporized=""/>
    <tripinfo id="test_vehicle_2" depart="3.00" departLane="E5_0" departPos="5.10" departSpeed="0.00" departDelay="0.00" arrival="132.50" arrivalLane="E6_0" arrivalPos="496.00" arrivalSpeed="13.01" duration="129.50" routeLength="994.90" waitingTime="45.10" waitingCount="1" stopTime="0.00" timeLoss="53.08" rerouteNo="0" devices="tripinfo_test_vehicle_2" vType="passenger" speedFactor="0.94" vaporized=""/>
    <tripinfo id="flow_ns_j2.0" depart="25.00" departLane="E5_1" departPos="5.10" departSpeed="13.03" departDelay="0.00" arrival="132.50" arrivalLane="E6_1" arrivalPos="496.00" arrivalSpeed="12.92" duration="107.50" routeLength="994.90" waitingTime="25.80" waitingCount="1" stopTime="0.00" timeLoss="31.09" rerouteNo="0" devices="tripinfo_flow_ns_j2.0" vType="passenger" speedFactor="0.94" vaporized=""/>
    <tripinfo id="flow_ns_j2.1" depart="35.30" departLane="E5_1" departPos="5.10" departSpeed="14.54" departDelay="0.01" arrival="133.90" arrivalLane="E6_0" arrivalPos="496.00" arrivalSpeed="14.54" duration="98.60" routeLength="994.90" waitingTime="16.70" waitingCount="1" stopTime="0.00" timeLoss="30.18" rerouteNo="0" devices="tripinfo_flow_ns_j2.1" vType="passenger" speedFactor="1.05" vaporized=""/>
    <tripinfo id="flow_ns_j3.2" depart="50.60" departLane="E7_0" departPos="5.10" departSpeed="13.00" departDelay="0.03" arrival="134.00" arrivalLane="E8_0" arrivalPos="496.00" arrivalSpeed="12.89" duration="83.40" routeLength="994.90" waitingTime="0.00" waitingCount="0" stopTime="0.00" timeLoss="6.83" rerouteNo="0" devices="tripinfo_flow_ns_j3.2" vType="passenger" speedFactor="0.94" vaporized=""/>
    <tripinfo id="flow_ns_j2.3" depart="55.90" departLane="E5_1" departPos="5.10" departSpeed="14.14" departDelay="0.04" arrival="135.40" arrivalLane="E6_0" arrivalPos="496.00" arrivalSpeed="14.11" duration="79.50" routeLength="994.90" waitingTime="0.00" waitingCount="0" stopTime="0.00" timeLoss="9.14" rerouteNo="0" devices="tripinfo_flow_ns_j2.3" vType="passenger" speedFactor="1.02" vaporized=""/>
    <tripinfo id="flow_ns_j3.0" depart="30.00" departLane="E7_1" departPos="5.10" departSpeed="11.90" departDelay="0.00" arrival="135.90" arrivalLane="E8_0" arrivalPos="496.00" arrivalSpeed="11.79" duration="105.90" routeLength="994.90" waitingTime="17.80" waitingCount="1" stopTime="0.00" timeLoss="22.32" rerouteNo="0" devices="tripinfo_flow_ns_j3.0" vType="passenger" speedFactor="0.86" vaporized=""/>
    <tripinfo id="flow_ns_j2.2" depart="45.60" departLane="E5_1" departPos="5.10" departSpeed="12.20" departDelay="0.03" arrival="136.30" arrivalLane="E6_0" arrivalPos="496.00" arrivalSpeed="12.16" duration="90.70" routeLength="994.90" waitingTime="0.10" waitingCount="1" stopTime="0.00" timeLoss="9.13" rerouteNo="0" devices="tripinfo_flow_ns_j2.2" vType="passenger" speedFactor="0.88" vaporized=""/>
    <tripinfo id="flow_ns_j2.5" depart="76.50" departLane="E5_1" departPos="5.10" departSpeed="15.72" departDelay="0.07" arrival="140.10" arrivalLane="E6_0" arrivalPos="496.00" arrivalSpeed="15.70" duration="63.60" routeLength="994.90" waitingTime="0.00" waitingCount="0" stopTime="0.00" timeLoss="0.26" rerouteNo="0" devices="tripinfo_flow_ns_j2.5" vType="passenger" speedFactor="1.13" vaporized=""/>
    <tripinfo id="flow_ns_j3.3" depart="60.90" departLane="E7_1" departPos="5.10" departSpeed="12.36" departDelay="0.04" arrival="141.90" arrivalLane="E8_0" arrivalPos="496.00" arrivalSpeed="12.35" duration="81.00" routeLength="994.90" waitingTime="0.00" waitingCount="0" stopTime="0.00" timeLoss="0.43" rerouteNo="0" devices="tripinfo_flow_ns_j3.3" vType="passenger" speedFactor="0.89" vaporized=""/>
    <tripinfo id="flow_ns_j3.5" depart="81.50" departLane="E7_1" departPos="5.10" departSpeed="16.03" departDelay="0.07" arrival="143.90" arrivalLane="E8_0" arrivalPos="496.00" arrivalSpeed="15.98" duration="62.40" routeLength="994.90" waitingTime="0.00" waitingCount="0" stopTime="0.00" timeLoss="0.29" rerouteNo="0" devices="tripinfo_flow_ns_j3.5" vType="passenger" speedFactor="1.15" vaporized=""/>
    <tripinfo id="flow_ns_j3.4" depart="71.20" departLane="E7_1" departPos="5.10" departSpeed="13.18" departDelay="0.06" arrival="147.10" arrivalLane="E8_0" arrivalPos="496.00" arrivalSpeed="13.07" duration="75.90" routeLength="994.90" waitingTime="0.00" waitingCount="0" stopTime="0.00" timeLoss="0.39" rerouteNo="0" devices="tripinfo_flow_ns_j3.4" vType="passenger" speedFactor="0.95" vaporized=""/>
    <tripinfo id="flow_ns_j2.4" depart="66.20" departLane="E5_0" departPos="5.10" departSpeed="11.47" departDelay="0.06" arrival="153.50" arrivalLane="E6_0" arrivalPos="496.00" arrivalSpeed="11.44" duration="87.30" routeLength="994.90" waitingTime="0.00" waitingCount="0" stopTime="0.00" timeLoss="0.48" rerouteNo="0" devices="tripinfo_flow_ns_j2.4" vType="passenger" speedFactor="0.83" vaporized=""/>
    <tripinfo id="emergency_1" depart="10.00" departLane="E1_0" departPos="6.10" departSpeed="0.00" departDelay="0.00" arrival="154.00" arrivalLane="E4_0" arrivalPos="500.00" arrivalSpeed="14.28" duration="144.00" routeLength="1994.00" waitingTime="0.00" waitingCount="0" stopTime="0.00" timeLoss="4.66" rerouteNo="0" devices="tripinfo_emergency_1" vType="emergency" speedFactor="1.03" vaporized=""/>
    <tripinfo id="flow_ns_j2.7" depart="97.10" departLane="E5_1" departPos="5.10" departSpeed="16.39" departDelay="0.10" arrival="158.30" arrivalLane="E6_1" arrivalPos="496.00" arrivalSpeed="16.38" duration="61.20" routeLength="994.90" waitingTime="0.00" waitingCount="0" stopTime="0.00" timeLoss="0.48" rerouteNo="0" devices="tripinfo_flow_ns_j2.7" vType="passenger" speedFactor="1.18" vaporized=""/>
    <tripinfo id="flow_ns_j2.6" depart="86.80" departLane="E5_0" departPos="5.10" departSpeed="13.96" departDelay="0.08" arrival="158.40" arrivalLane="E6_0" arrivalPos="496.00" arrivalSpeed="13.90" duration="71.60" routeLength="994.90" waitingTime="0.00" waitingCount="0" stopTime="0.00" timeLoss="0.34" rerouteNo="0" devices="tripinfo_flow_ns_j2.6" vType="passenger" speedFactor="1.01" vaporized=""/>
    <tripinfo id="flow_ns_j3.6" depart="91.80" departLane="E7_0" departPos="5.10" departSpeed="13.82" departDelay="0.08" arrival="164.20" arrivalLane="E8_0" arrivalPos="496.00" arrivalSpeed="13.81" duration="72.40" routeLength="994.90" waitingTime="0.00" waitingCount="0" stopTime="0.00" timeLoss="0.34" rerouteNo="0" devices="tripinfo_flow_ns_j3.6" vType="passenger" speedFactor="0.99" vaporized=""/>
    <tripinfo id="flow_ew_j2.4" depart="51.00" departLane="E1_0" departPos="5.10" departSpeed="16.09" departDelay="0.00" arrival="174.60" arrivalLane="E3_1" arrivalPos="489.60" arrivalSpeed="15.98" duration="123.60" routeLength="1494.90" waitingTime="18.00" waitingCount="1" stopTime="0.00" timeLoss="30.68" rerouteNo="0" devices="tripinfo_flow_ew_j2.4" vType="passenger" speedFactor="1.16" vaporized=""/>
    <tripinfo id="flow_ew_j2.2" depart="33.00" departLane="E1_0" departPos="5.10" departSpeed="14.26" departDelay="0.00" arrival="175.30" arrivalLane="E3_0" arrivalPos="489.60" arrivalSpeed="14.17" duration="142.30" routeLength="1494.90" waitingTime="27.50" waitingCount="1" stopTime="0.00" timeLoss="37.37" rerouteNo="0" devices="tripinfo_flow_ew_j2.2" vType="passenger" speedFactor="1.03" vaporized=""/>
    <tripinfo id="flow_ew_j2.0" depart="15.00" departLane="E1_1" departPos="5.10" departSpeed="11.54" departDelay="0.00" arrival="183.20" arrivalLane="E3_0" arrivalPos="489.60" arrivalSpeed="11.47" duration="168.20" routeLength="1494.90" waitingTime="29.90" waitingCount="1" stopTime="0.00" timeLoss="38.62" rerouteNo="0" devices="tripinfo_flow_ew_j2.0" vType="passenger" speedFactor="0.83" vaporized=""/>
    <tripinfo id="flow_ew_j2.3" depart="42.00" departLane="E1_1" departPos="5.10" departSpeed="13.77" departDelay="0.00" arrival="184.70" arrivalLane="E3_1" arrivalPos="489.60" arrivalSpeed="13.77" duration="142.70" routeLength="1494.90" waitingTime="18.30" waitingCount="1" stopTime="0.00" timeLoss="34.06" rerouteNo="0" devices="tripinfo_flow_ew_j2.3" vType="passenger" speedFactor="0.99" vaporized=""/>
    <tripinfo id="flow_ew_j2.1" depart="24.00" departLane="E1_1" departPos="5.10" departSpeed="12.31" departDelay="0.00" arrival="184.80" arrivalLane="E3_0" arrivalPos="489.60" arrivalSpeed="12.30" duration="160.80" routeLength="1494.90" waitingTime="26.80" waitingCount="1" stopTime="0.00" timeLoss="39.24" rerouteNo="0" devices="tripinfo_flow_ew_j2.1" vType="passenger" speedFactor="0.89" vaporized=""/>
    <tripinfo id="flow_ew_full.1" depart="32.00" departLane="E1_1" departPos="5.10" departSpeed="15.15" departDelay="0.00" arrival="205.10" arrivalLane="E4_0" arrivalPos="500.00" arrivalSpeed="15.05" duration="173.10" routeLength="1995.00" waitingTime="35.60" waitingCount="1" stopTime="0.00" timeLoss="41.34" rerouteNo="0" devices="tripinfo_flow_ew_full.1" vType="passenger" speedFactor="1.09" vaporized=""/>
    <tripinfo id="flow_ew_full.0" depart="20.00" departLane="E1_0" departPos="5.10" departSpeed="14.53" departDelay="0.00" arrival="208.10" arrivalLane="E4_0" arrivalPos="500.00" arrivalSpeed="14.41" duration="188.10" routeLength="1995.00" waitingTime="44.60" waitingCount="1" stopTime="0.00" timeLoss="50.72" rerouteNo="0" devices="tripinfo_flow_ew_full.0" vType="passenger" speedFactor="1.05" vaporized=""/>
    <tripinfo id="flow_ew_j2.5" depart="60.00" departLane="E1_1" departPos="5.10" departSpeed="13.54" departDelay="0.00" arrival="212.80" arrivalLane="E3_0" arrivalPos="489.60" arrivalSpeed="13.53" duration="152.80" routeLength="1494.90" waitingTime="36.70" waitingCount="1" stopTime="0.00" timeLoss="42.33" rerouteNo="0" devices="tripinfo_flow_ew_j2.5" vType="passenger" speedFactor="0.97" vaporized=""/>
    <tripinfo id="flow_ns_j3.7" depart="102.10" departLane="E7_1" departPos="5.10" departSpeed="15.31" departDelay="0.10" arrival="217.20" arrivalLane="E8_0" arrivalPos="496.00" arrivalSpeed="15.26" duration="115.10" routeLength="994.90" waitingTime="44.40" waitingCount="1" stopTime="0.00" timeLoss="50.07" rerouteNo="0" devices="tripinfo_flow_ns_j3.7" vType="passenger" speedFactor="1.10" vaporized=""/>
    <tripinfo id="flow_ns_j3.8" depart="112.30" departLane="E7_1" departPos="5.10" departSpeed="15.17" departDelay="0.01" arrival="217.50" arrivalLane="E8_0" arrivalPos="496.00" arrivalSpeed="15.11" duration="105.20" routeLength="994.90" waitingTime="33.60" waitingCount="1" stopTime="0.00" timeLoss="39.59" rerouteNo="0" devices="tripinfo_flow_ns_j3.8" vType="passenger" speedFactor="1.09" vaporized=""/>
    <tripinfo id="flow_ns_j2.9" depart="117.60" departLane="E5_1" departPos="5.10" departSpeed="15.11" departDelay="0.03" arrival="217.70" arrivalLane="E6_0" arrivalPos="496.00" arrivalSpeed="15.08" duration="100.10" routeLength="994.90" waitingTime="28.20" waitingCount="1" stopTime="0.00" timeLoss="34.18" rerouteNo="0" devices="tripinfo_flow_ns_j2.9" vType="passenger" speedFactor="1.09" vaporized=""/>
    <tripinfo id="flow_ns_j3.10" depart="132.90" departLane="E7_1" departPos="5.10" departSpeed="16.24" departDelay="0.04" arrival="218.90" arrivalLane="E8_1" arrivalPos="496.00" arrivalSpeed="16.15" duration="86.00" routeLength="994.90" waitingTime="12.10" waitingCount="1" stopTime="0.00" timeLoss="24.71" rerouteNo="0" devices="tripinfo_flow_ns_j3.10" vType="passenger" speedFactor="1.17" vaporized=""/>
    <tripinfo id="flow_ew_full.2" depart="44.00" departLane="E1_0" departPos="5.10" departSpeed="12.87" departDelay="0.00" arrival="220.50" arrivalLane="E4_0" arrivalPos="500.00" arrivalSpeed="12.76" duration="176.50" routeLength="1995.00" waitingTime="11.30" waitingCount="1" stopTime="0.00" timeLoss="21.50" rerouteNo="0" devices="tripinfo_flow_ew_full.2" vType="passenger" speedFactor="0.93" vaporized=""/>
    <tripinfo id="flow_ns_j2.11" depart="138.20" departLane="E5_1" departPos="5.10" departSpeed="14.12" departDelay="0.05" arrival="221.20" arrivalLane="E6_1" arrivalPos="496.00" arrivalSpeed="14.12" duration="83.00" routeLength="994.90" waitingTime="2.70" waitingCount="1" stopTime="0.00" timeLoss="12.47" rerouteNo="0" devices="tripinfo_flow_ns_j2.11" vType="passenger" speedFactor="1.02" vaporized=""/>
    <tripinfo id="emergency_flow.0" depart="50.00" departLane="E1_1" departPos="6.10" departSpeed="13.08" departDelay="0.00" arrival="221.30" arrivalLane="E4_1" arrivalPos="500.00" arrivalSpeed="13.06" duration="171.30" routeLength="1994.00" waitingTime="8.20" waitingCount="1" stopTime="0.00" timeLoss="18.73" rerouteNo="0" devices="tripinfo_emergency_flow.0" vType="emergency" speedFactor="0.94" vaporized=""/>
    <tripinfo id="flow_ns_j2.8" depart="107.30" departLane="E5_0" departPos="5.10" departSpeed="13.29" departDelay="0.01" arrival="221.60" arrivalLane="E6_0" arrivalPos="496.00" arrivalSpeed="13.19" duration="114.30" routeLength="994.90" waitingTime="34.60" waitingCount="1" stopTime="0.00" timeLoss="39.42" rerouteNo="0" devices="tripinfo_flow_ns_j2.8" vType="passenger" speedFactor="0.96" vaporized=""/>
    <tripinfo id="flow_ns_j3.9" depart="122.60" departLane="E7_1" departPos="5.10" departSpeed="13.85" departDelay="0.03" arrival="221.70" arrivalLane="E8_0" arrivalPos="496.00" arrivalSpeed="13.77" duration="99.10" routeLength="994.90" waitingTime="17.90" waitingCount="1" stopTime="0.00" timeLoss="27.20" rerouteNo="0" devices="tripinfo_flow_ns_j3.9" vType="passenger" speedFactor="1.00" vaporized=""/>
    <tripinfo id="flow_ns_j3.11" depart="143.20" departLane="E7_0" departPos="5.10" departSpeed="13.83" departDelay="0.05" arrival="223.20" arrivalLane="E8_1" arrivalPos="496.00" arrivalSpeed="13.79" duration="80.00" routeLength="994.90" waitingTime="0.00" waitingCount="0" stopTime="0.00" timeLoss="8.07" rerouteNo="0" devices="tripinfo_flow_ns_j3.11" vType="passenger" speedFactor="1.00" vaporized=""/>
    <tripinfo id="flow_ns_j2.13" depart="158.80" departLane="E5_1" departPos="5.10" departSpeed="15.04" departDelay="0.08" arrival="225.50" arrivalLane="E6_1" arrivalPos="496.00" arrivalSpeed="14.95" duration="66.70" routeLength="994.90" waitingTime="0.00" waitingCount="0" stopTime="0.00" timeLoss="0.51" rerouteNo="0" devices="tripinfo_flow_ns_j2.13" vType="passenger" speedFactor="1.08" vaporized=""/>
    <tripinfo id="flow_ns_j2.10" depart="127.90" departLane="E5_0" departPos="5.10" departSpeed="12.18" departDelay="0.04" arrival="226.50" arrivalLane="E6_0" arrivalPos="496.00" arrivalSpeed="12.08" duration="98.60" routeLength="994.90" waitingTime="8.10" waitingCount="1" stopTime="0.00" timeLoss="16.83" rerouteNo="0" devices="tripinfo_flow_ns_j2.10" vType="passenger" speedFactor="0.88" vaporized=""/>
    <tripinfo id="flow_ns_j3.12" depart="153.50" departLane="E7_1" departPos="5.10" departSpeed="13.47" departDelay="0.07" arrival="227.80" arrivalLane="E8_0" arrivalPos="496.00" arrivalSpeed="13.38" duration="74.30" routeLength="994.90" waitingTime="0.00" waitingCount="0" stopTime="0.00" timeLoss="0.35" rerouteNo="0" devices="tripinfo_flow_ns_j3.12" vType="passenger" speedFactor="0.97" vaporized=""/>
    <tripinfo id="flow_ns_j2.12" depart="148.50" departLane="E5_0" departPos="5.10" departSpeed="12.49" departDelay="0.07" arrival="228.70" arrivalLane="E6_0" arrivalPos="496.00" arrivalSpeed="12.43" duration="80.20" routeLength="994.90" waitingTime="0.00" waitingCount="0" stopTime="0.00" timeLoss="0.43" rerouteNo="0" devices="tripinfo_flow_ns_j2.12" vType="passenger" speedFactor="0.90" vaporized=""/>
    <tripinfo id="flow_ns_j3.13" depart="163.80" departLane="E7_1" departPos="5.10" departSpeed="14.11" departDelay="0.08" arrival="234.70" arrivalLane="E8_0" arrivalPos="496.00" arrivalSpeed="14.10" duration="70.90" routeLength="994.90" waitingTime="0.00" waitingCount="0" stopTime="0.00" timeLoss="0.33" rerouteNo="0" devices="tripinfo_flow_ns_j3.13" vType="passenger" speedFactor="1.02" vaporized=""/>
    <tripinfo id="flow_ew_full.3" depart="56.00" departLane="E1_0" departPos="5.10" departSpeed="14.03" departDelay="0.00" arrival="246.10" arrivalLane="E4_0" arrivalPos="500.00" arrivalSpeed="14.01" duration="190.10" routeLength="1995.00" waitingTime="42.30" waitingCount="1" stopTime="0.00" timeLoss="47.90" rerouteNo="0" devices="tripinfo_flow_ew_full.3" vType="passenger" speedFactor="1.01" vaporized=""/>
    <tripinfo id="flow_ns_j2.15" depart="179.30" departLane="E5_1" departPos="5.10" departSpeed="14.20" departDelay="0.01" arrival="250.00" arrivalLane="E6_1" arrivalPos="496.00" arrivalSpeed="14.12" duration="70.70" routeLength="994.90" waitingTime="0.00" waitingCount="0" stopTime="0.00" timeLoss="0.54" rerouteNo="0" devices="tripinfo_flow_ns_j2.15" vType="passenger" speedFactor="1.02" vaporized=""/>
    <tripinfo id="flow_ns_j2.14" depart="169.10" departLane="E5_0" departPos="5.10" departSpeed="12.26" departDelay="0.10" arrival="250.80" arrivalLane="E6_0" arrivalPos="496.00" arrivalSpeed="12.23" duration="81.70" routeLength="994.90" waitingTime="0.00" waitingCount="0" stopTime="0.00" timeLoss="0.43" rerouteNo="0" devices="tripinfo_flow_ns_j2.14" vType="passenger" speedFactor="0.88" vaporized=""/>
    <tripinfo id="flow_ns_j3.14" depart="174.10" departLane="E7_1" departPos="5.10" departSpeed="12.60" departDelay="0.10" arrival="253.50" arrivalLane="E8_0" arrivalPos="496.00" arrivalSpeed="12.56" duration="79.40" routeLength="994.90" waitingTime="0.00" waitingCount="0" stopTime="0.00" timeLoss="0.41" rerouteNo="0" devices="tripinfo_flow_ns_j3.14" vType="passenger" speedFactor="0.91" vaporized=""/>
    <tripinfo id="flow_ns_j3.15" depart="184.30" departLane="E7_1" departPos="5.10" departSpeed="14.21" departDelay="0.01" arrival="254.90" arrivalLane="E8_1" arrivalPos="496.00" arrivalSpeed="14.17" duration="70.60" routeLength="994.90" waitingTime="0.00" waitingCount="0" stopTime="0.00" timeLoss="0.54" rerouteNo="0" devices="tripinfo_flow_ns_j3.15" vType="passenger" speedFactor="1.02" vaporized=""/>
    <tripinfo id="flow_ns_j2.16" depart="189.60" departLane="E5_0" departPos="5.10" departSpeed="14.66" departDelay="0.02" arrival="257.80" arrivalLane="E6_0" arrivalPos="496.00" arrivalSpeed="14.54" duration="68.20" routeLength="994.90" waitingTime="0.00" waitingCount="0" stopTime="0.00" timeLoss="0.30" rerouteNo="0" devices="tripinfo_flow_ns_j2.16" vType="passenger" speedFactor="1.06" vaporized=""/>
    <tripinfo id="flow_ew_j2.6" depart="69.00" departLane="E1_0" departPos="5.10" departSpeed="12.74" departDelay="0.00" arrival="267.80" arrivalLane="E3_0" arrivalPos="489.60" arrivalSpeed="12.71" duration="198.80" routeLength="1494.90" waitingTime="68.00" waitingCount="2" stopTime="0.00" timeLoss="81.46" rerouteNo="0" devices="tripinfo_flow_ew_j2.6" vType="passenger" speedFactor="0.92" vaporized=""/>
    <tripinfo id="flow_ew_j2.7" depart="78.00" departLane="E1_1" departPos="5.10" departSpeed="12.94" departDelay="0.00" arrival="271.00" arrivalLane="E3_0" arrivalPos="489.60" arrivalSpeed="12.88" duration="193.00" routeLength="1494.90" waitingTime="55.30" waitingCount="2" stopTime="0.00" timeLoss="77.41" rerouteNo="0" devices="tripinfo_flow_ew_j2.7" vType="passenger" speedFactor="0.93" vaporized=""/>
    <tripinfo id="flow_ew_j2.8" depart="87.00" departLane="E1_1" departPos="5.10" departSpeed="16.28" departDelay="0.00" arrival="271.30" arrivalLane="E3_1" arrivalPos="489.60" arrivalSpeed="14.55" duration="184.30" routeLength="1494.90" waitingTime="52.40" waitingCount="2" stopTime="0.00" timeLoss="92.37" rerouteNo="0" devices="tripinfo_flow_ew_j2.8" vType="passenger" speedFactor="1.17" vaporized=""/>
    <tripinfo id="flow_ew_j2.9" depart="96.00" departLane="E1_1" departPos="5.10" departSpeed="13.52" departDelay="0.00" arrival="272.50" arrivalLane="E3_0" arrivalPos="489.60" arrivalSpeed="13.50" duration="176.50" routeLength="1494.90" waitingTime="38.20" waitingCount="2" stopTime="0.00" timeLoss="65.92" rerouteNo="0" devices="tripinfo_flow_ew_j2.9" vType="passenger" speedFactor="0.97" vaporized=""/>
    <tripinfo id="flow_ew_j2.10" depart="105.00" departLane="E1_0" departPos="5.10" departSpeed="14.31" departDelay="0.00" arrival="274.20" arrivalLane="E3_1" arrivalPos="489.60" arrivalSpeed="14.30" duration="169.20" routeLength="1494.90" waitingTime="35.20" waitingCount="1" stopTime="0.00" timeLoss="64.67" rerouteNo="0" devices="tripinfo_flow_ew_j2.10" vType="passenger" speedFactor="1.03" vaporized=""/>
    <tripinfo id="flow_ew_j2.11" depart="114.00" departLane="E1_0" departPos="5.10" departSpeed="14.42" departDelay="0.00" arrival="275.60" arrivalLane="E3_1" arrivalPos="489.60" arrivalSpeed="14.37" duration="161.60" routeLength="1494.90" waitingTime="34.00" waitingCount="1" stopTime="0.00" timeLoss="57.87" rerouteNo="0" devices="tripinfo_flow_ew_j2.11" vType="passenger" speedFactor="1.04" vaporized=""/>
    <tripinfo id="flow_ew_j2.12" depart="123.00" departLane="E1_0" departPos="5.10" departSpeed="12.51" departDelay="0.00" arrival="277.70" arrivalLane="E3_1" arrivalPos="489.60" arrivalSpeed="12.39" duration="154.70" routeLength="1494.90" waitingTime="22.40" waitingCount="1" stopTime="0.00" timeLoss="35.15" rerouteNo="0" devices="tripinfo_flow_ew_j2.12" vType="passenger" speedFactor="0.90" vaporized=""/>
    <tripinfo id="flow_ew_j2.14" depart="141.00" departLane="E1_0" departPos="5.10" departSpeed="13.93" departDelay="0.00" arrival="280.70" arrivalLane="E3_1" arrivalPos="489.60" arrivalSpeed="13.81" duration="139.70" routeLength="1494.90" waitingTime="14.20" waitingCount="1" stopTime="0.00" timeLoss="32.35" rerouteNo="0" devices="tripinfo_flow_ew_j2.14" vType="passenger" speedFactor="1.00" vaporized=""/>
    <tripinfo id="flow_ew_j2.13" depart="132.00" departLane="E1_0" departPos="5.10" departSpeed="11.87" departDelay="0.00" arrival="281.50" arrivalLane="E3_0" arrivalPos="489.60" arrivalSpeed="11.87" duration="149.50" routeLength="1494.90" waitingTime="11.80" waitingCount="1" stopTime="0.00" timeLoss="23.58" rerouteNo="0" devices="tripinfo_flow_ew_j2.13" vType="passenger" speedFactor="0.85" vaporized=""/>
    <tripinfo id="flow_ew_j2.15" depart="150.00" departLane="E1_1" departPos="5.10" departSpeed="15.87" departDelay="0.00" arrival="292.20" arrivalLane="E3_0" arrivalPos="489.60" arrivalSpeed="15.79" duration="142.20" routeLength="1494.90" waitingTime="42.20" waitingCount="1" stopTime="0.00" timeLoss="47.99" rerouteNo="0" devices="tripinfo_flow_ew_j2.15" vType="passenger" speedFactor="1.14" vaporized=""/>
    <tripinfo id="flow_ew_j2.16" depart="159.00" departLane="E1_1" departPos="5.10" departSpeed="15.55" departDelay="0.00" arrival="294.80" arrivalLane="E3_0" arrivalPos="489.60" arrivalSpeed="15.50" duration="135.80" routeLength="1494.90" waitingTime="29.60" waitingCount="1" stopTime="0.00" timeLoss="39.59" rerouteNo="0" devices="tripinfo_flow_ew_j2.16" vType="passenger" speedFactor="1.12" vaporized=""/>
</tripinfos>
