<?xml version="1.0" encoding="UTF-8"?>

<!-- generated on 2025-10-29 21:01:42 by Eclipse SUMO sumo Version 1.22.0
<sumoConfiguration xmlns:xsi="http://www.w3.org/2001/XMLSchema-instance" xsi:noNamespaceSchemaLocation="http://sumo.dlr.de/xsd/sumoConfiguration.xsd">

    <input>
        <net-file value="/Users/apple/Desktop/vanet_29_oct/vanet_final_v3/rl_module/../sumo_simulation/maps/simple_network.net.xml"/>
        <route-files value="/Users/apple/Desktop/vanet_29_oct/vanet_final_v3/rl_module/../sumo_simulation/maps/routes.rou.xml"/>
    </input>

    <output>
        <summary-output value="/Users/apple/Desktop/vanet_29_oct/vanet_final_v3/rl_module/../sumo_simulation/output/summary.xml"/>
        <tripinfo-output value="/Users/apple/Desktop/vanet_29_oct/vanet_final_v3/rl_module/../sumo_simulation/output/tripinfo.xml"/>
    </output>

    <time>
        <begin value="0"/>
        <end value="3600"/>
        <step-length value="1"/>
    </time>

    <processing>
        <time-to-teleport value="300"/>
    </processing>

    <traci_server>
        <remote-port value="51387"/>
    </traci_server>

    <gui_only>
        <gui-settings-file value="/Users/apple/Desktop/vanet_29_oct/vanet_final_v3/rl_module/../sumo_simulation/maps/gui-settings.cfg"/>
        <quit-on-end value="false"/>
        <start value="true"/>
    </gui_only>

</sumoConfiguration>
-->

<tripinfos xmlns:xsi="http://www.w3.org/2001/XMLSchema-instance" xsi:noNamespaceSchemaLocation="http://sumo.dlr.de/xsd/tripinfo_file.xsd">
    <tripinfo id="test_vehicle_4" depart="7.00" departLane="E7_0" departPos="5.10" departSpeed="0.00" departDelay="0.00" arrival="80.00" arrivalLane="E8_0" arrivalPos="496.00" arrivalSpeed="14.87" duration="73.00" routeLength="994.90" waitingTime="0.00" waitingCount="0" stopTime="0.00" timeLoss="5.96" rerouteNo="0" devices="tripinfo_test_vehicle_4" vType="passenger" speedFactor="1.08" vaporized=""/>
    <tripinfo id="test_vehicle_2" depart="3.00" departLane="E5_0" departPos="5.10" departSpeed="0.00" departDelay="0.00" arrival="92.00" arrivalLane="E6_0" arrivalPos="496.00" arrivalSpeed="12.44" duration="89.00" routeLength="994.90" waitingTime="2.00" waitingCount="1" stopTime="0.00" timeLoss="12.41" rerouteNo="0" devices="tripinfo_test_vehicle_2" vType="passenger" speedFactor="0.94" vaporized=""/>
    <tripinfo id="flow_ns_j2.0" depart="25.00" departLane="E5_1" departPos="5.10" departSpeed="13.03" departDelay="0.00" arrival="105.00" arrivalLane="E6_0" arrivalPos="496.00" arrivalSpeed="12.20" duration="80.00" routeLength="994.90" waitingTime="0.00" waitingCount="0" stopTime="0.00" timeLoss="3.26" rerouteNo="0" devices="tripinfo_flow_ns_j2.0" vType="passenger" speedFactor="0.94" vaporized=""/>
    <tripinfo id="flow_ns_j3.1" depart="41.00" departLane="E7_1" departPos="5.10" departSpeed="15.60" departDelay="0.71" arrival="108.00" arrivalLane="E8_0" arrivalPos="496.00" arrivalSpeed="14.94" duration="67.00" routeLength="994.90" waitingTime="0.00" waitingCount="0" stopTime="0.00" timeLoss="3.05" rerouteNo="0" devices="tripinfo_flow_ns_j3.1" vType="passenger" speedFactor="1.12" vaporized=""/>
    <tripinfo id="flow_ns_j3.0" depart="30.00" departLane="E7_1" departPos="5.10" departSpeed="11.90" departDelay="0.00" arrival="119.00" arrivalLane="E8_0" arrivalPos="496.00" arrivalSpeed="10.67" duration="89.00" routeLength="994.90" waitingTime="0.00" waitingCount="0" stopTime="0.00" timeLoss="4.71" rerouteNo="0" devices="tripinfo_flow_ns_j3.0" vType="passenger" speedFactor="0.86" vaporized=""/>
    <tripinfo id="flow_ns_j3.2" depart="51.00" departLane="E7_0" departPos="5.10" departSpeed="16.09" departDelay="0.43" arrival="125.00" arrivalLane="E8_0" arrivalPos="496.00" arrivalSpeed="16.01" duration="74.00" routeLength="994.90" waitingTime="5.00" waitingCount="1" stopTime="0.00" timeLoss="12.10" rerouteNo="0" devices="tripinfo_flow_ns_j3.2" vType="passenger" speedFactor="1.16" vaporized=""/>
    <tripinfo id="flow_ns_j2.1" depart="36.00" departLane="E5_1" departPos="5.10" departSpeed="14.54" departDelay="0.71" arrival="141.00" arrivalLane="E6_0" arrivalPos="496.00" arrivalSpeed="14.38" duration="105.00" routeLength="994.90" waitingTime="28.00" waitingCount="1" stopTime="0.00" timeLoss="35.85" rerouteNo="0" devices="tripinfo_flow_ns_j2.1" vType="passenger" speedFactor="1.05" vaporized=""/>
    <tripinfo id="test_vehicle_1" depart="1.00" departLane="E1_0" departPos="5.10" departSpeed="0.00" departDelay="0.00" arrival="144.00" arrivalLane="E3_0" arrivalPos="489.60" arrivalSpeed="14.43" duration="143.00" routeLength="1494.90" waitingTime="27.00" waitingCount="1" stopTime="0.00" timeLoss="41.35" rerouteNo="0" devices="tripinfo_test_vehicle_1" vType="passenger" speedFactor="1.06" vaporized=""/>
    <tripinfo id="flow_ns_j2.3" depart="56.00" departLane="E5_1" departPos="5.10" departSpeed="14.03" departDelay="0.14" arrival="144.00" arrivalLane="E6_0" arrivalPos="496.00" arrivalSpeed="13.50" duration="88.00" routeLength="994.90" waitingTime="8.00" waitingCount="1" stopTime="0.00" timeLoss="16.19" rerouteNo="0" devices="tripinfo_flow_ns_j2.3" vType="passenger" speedFactor="1.01" vaporized=""/>
    <tripinfo id="flow_ns_j2.5" depart="77.00" departLane="E5_1" departPos="5.10" departSpeed="15.72" departDelay="0.57" arrival="146.00" arrivalLane="E6_1" arrivalPos="496.00" arrivalSpeed="15.28" duration="69.00" routeLength="994.90" waitingTime="0.00" waitingCount="0" stopTime="0.00" timeLoss="5.24" rerouteNo="0" devices="tripinfo_flow_ns_j2.5" vType="passenger" speedFactor="1.13" vaporized=""/>
    <tripinfo id="flow_ns_j2.2" depart="46.00" departLane="E5_1" departPos="5.10" departSpeed="12.20" departDelay="0.43" arrival="147.00" arrivalLane="E6_0" arrivalPos="496.00" arrivalSpeed="12.03" duration="101.00" routeLength="994.90" waitingTime="11.00" waitingCount="1" stopTime="0.00" timeLoss="18.98" rerouteNo="0" devices="tripinfo_flow_ns_j2.2" vType="passenger" speedFactor="0.88" vaporized=""/>
    <tripinfo id="flow_ns_j3.3" depart="61.00" departLane="E7_1" departPos="5.10" departSpeed="12.36" departDelay="0.14" arrival="147.00" arrivalLane="E8_0" arrivalPos="496.00" arrivalSpeed="11.08" duration="86.00" routeLength="994.90" waitingTime="0.00" waitingCount="0" stopTime="0.00" timeLoss="4.77" rerouteNo="0" devices="tripinfo_flow_ns_j3.3" vType="passenger" speedFactor="0.89" vaporized=""/>
    <tripinfo id="test_vehicle_3" depart="5.00" departLane="E1_0" departPos="5.10" departSpeed="0.00" departDelay="0.00" arrival="148.00" arrivalLane="E3_0" arrivalPos="489.60" arrivalSpeed="13.41" duration="143.00" routeLength="1494.90" waitingTime="16.00" waitingCount="2" stopTime="0.00" timeLoss="36.07" rerouteNo="0" devices="tripinfo_test_vehicle_3" vType="passenger" speedFactor="1.01" vaporized=""/>
    <tripinfo id="flow_ns_j3.5" depart="82.00" departLane="E7_1" departPos="5.10" departSpeed="16.03" departDelay="0.57" arrival="153.00" arrivalLane="E8_0" arrivalPos="496.00" arrivalSpeed="15.35" duration="71.00" routeLength="994.90" waitingTime="0.00" waitingCount="0" stopTime="0.00" timeLoss="8.21" rerouteNo="0" devices="tripinfo_flow_ns_j3.5" vType="passenger" speedFactor="1.15" vaporized=""/>
    <tripinfo id="flow_ns_j2.4" depart="67.00" departLane="E5_0" departPos="5.10" departSpeed="11.47" departDelay="0.86" arrival="159.00" arrivalLane="E6_0" arrivalPos="496.00" arrivalSpeed="10.76" duration="92.00" routeLength="994.90" waitingTime="0.00" waitingCount="0" stopTime="0.00" timeLoss="5.23" rerouteNo="0" devices="tripinfo_flow_ns_j2.4" vType="passenger" speedFactor="0.83" vaporized=""/>
    <tripinfo id="flow_ns_j3.4" depart="72.00" departLane="E7_1" departPos="5.10" departSpeed="13.18" departDelay="0.86" arrival="160.00" arrivalLane="E8_0" arrivalPos="496.00" arrivalSpeed="13.04" duration="88.00" routeLength="994.90" waitingTime="3.00" waitingCount="1" stopTime="0.00" timeLoss="12.33" rerouteNo="0" devices="tripinfo_flow_ns_j3.4" vType="passenger" speedFactor="0.95" vaporized=""/>
    <tripinfo id="emergency_1" depart="10.00" departLane="E1_0" departPos="6.10" departSpeed="0.00" departDelay="0.00" arrival="179.00" arrivalLane="E4_0" arrivalPos="500.00" arrivalSpeed="14.23" duration="169.00" routeLength="1994.00" waitingTime="17.00" waitingCount="2" stopTime="0.00" timeLoss="29.44" rerouteNo="0" devices="tripinfo_emergency_1" vType="emergency" speedFactor="1.03" vaporized=""/>
    <tripinfo id="flow_ns_j3.7" depart="103.00" departLane="E7_1" departPos="5.10" departSpeed="15.31" departDelay="1.00" arrival="182.00" arrivalLane="E8_0" arrivalPos="496.00" arrivalSpeed="14.71" duration="79.00" routeLength="994.90" waitingTime="4.00" waitingCount="1" stopTime="0.00" timeLoss="13.09" rerouteNo="0" devices="tripinfo_flow_ns_j3.7" vType="passenger" speedFactor="1.10" vaporized=""/>
    <tripinfo id="flow_ew_full.0" depart="20.00" departLane="E1_0" departPos="5.10" departSpeed="14.53" departDelay="0.00" arrival="183.00" arrivalLane="E4_0" arrivalPos="500.00" arrivalSpeed="13.93" duration="163.00" routeLength="1995.00" waitingTime="8.00" waitingCount="1" stopTime="0.00" timeLoss="24.93" rerouteNo="0" devices="tripinfo_flow_ew_full.0" vType="passenger" speedFactor="1.05" vaporized=""/>
    <tripinfo id="flow_ns_j3.6" depart="92.00" departLane="E7_0" departPos="5.10" departSpeed="14.16" departDelay="0.28" arrival="184.00" arrivalLane="E8_0" arrivalPos="496.00" arrivalSpeed="13.71" duration="92.00" routeLength="994.90" waitingTime="12.00" waitingCount="1" stopTime="0.00" timeLoss="21.73" rerouteNo="0" devices="tripinfo_flow_ns_j3.6" vType="passenger" speedFactor="1.02" vaporized=""/>
    <tripinfo id="flow_ns_j3.8" depart="113.00" departLane="E7_1" departPos="5.10" departSpeed="15.17" departDelay="0.71" arrival="184.00" arrivalLane="E8_1" arrivalPos="496.00" arrivalSpeed="14.35" duration="71.00" routeLength="994.90" waitingTime="0.00" waitingCount="0" stopTime="0.00" timeLoss="4.53" rerouteNo="0" devices="tripinfo_flow_ns_j3.8" vType="passenger" speedFactor="1.09" vaporized=""/>
    <tripinfo id="flow_ns_j2.7" depart="98.00" departLane="E5_1" departPos="5.10" departSpeed="16.39" departDelay="1.00" arrival="188.00" arrivalLane="E6_0" arrivalPos="496.00" arrivalSpeed="15.64" duration="90.00" routeLength="994.90" waitingTime="19.00" waitingCount="1" stopTime="0.00" timeLoss="28.51" rerouteNo="0" devices="tripinfo_flow_ns_j2.7" vType="passenger" speedFactor="1.18" vaporized=""/>
    <tripinfo id="flow_ns_j2.6" depart="87.00" departLane="E5_0" departPos="5.10" departSpeed="16.28" departDelay="0.28" arrival="190.00" arrivalLane="E6_0" arrivalPos="496.00" arrivalSpeed="15.74" duration="103.00" routeLength="994.90" waitingTime="29.00" waitingCount="1" stopTime="0.00" timeLoss="41.68" rerouteNo="0" devices="tripinfo_flow_ns_j2.6" vType="passenger" speedFactor="1.17" vaporized=""/>
    <tripinfo id="flow_ns_j2.9" depart="118.00" departLane="E5_1" departPos="5.10" departSpeed="15.11" departDelay="0.43" arrival="191.00" arrivalLane="E6_1" arrivalPos="496.00" arrivalSpeed="15.08" duration="73.00" routeLength="994.90" waitingTime="0.00" waitingCount="0" stopTime="0.00" timeLoss="7.06" rerouteNo="0" devices="tripinfo_flow_ns_j2.9" vType="passenger" speedFactor="1.09" vaporized=""/>
    <tripinfo id="flow_ns_j3.10" depart="133.00" departLane="E7_1" departPos="5.10" departSpeed="16.24" departDelay="0.14" arrival="206.00" arrivalLane="E8_0" arrivalPos="496.00" arrivalSpeed="15.85" duration="73.00" routeLength="994.90" waitingTime="2.00" waitingCount="1" stopTime="0.00" timeLoss="11.07" rerouteNo="0" devices="tripinfo_flow_ns_j3.10" vType="passenger" speedFactor="1.17" vaporized=""/>
    <tripinfo id="flow_ns_j3.9" depart="123.00" departLane="E7_1" departPos="5.10" departSpeed="12.51" departDelay="0.43" arrival="215.00" arrivalLane="E8_0" arrivalPos="496.00" arrivalSpeed="12.26" duration="92.00" routeLength="994.90" waitingTime="3.00" waitingCount="1" stopTime="0.00" timeLoss="11.85" rerouteNo="0" devices="tripinfo_flow_ns_j3.9" vType="passenger" speedFactor="0.90" vaporized=""/>
    <tripinfo id="flow_ns_j3.11" depart="144.00" departLane="E7_0" departPos="5.10" departSpeed="13.83" departDelay="0.85" arrival="220.00" arrivalLane="E8_0" arrivalPos="496.00" arrivalSpeed="12.98" duration="76.00" routeLength="994.90" waitingTime="0.00" waitingCount="0" stopTime="0.00" timeLoss="3.47" rerouteNo="0" devices="tripinfo_flow_ns_j3.11" vType="passenger" speedFactor="1.00" vaporized=""/>
    <tripinfo id="flow_ns_j2.8" depart="108.00" departLane="E5_0" departPos="5.10" departSpeed="13.29" departDelay="0.71" arrival="221.00" arrivalLane="E6_0" arrivalPos="496.00" arrivalSpeed="12.48" duration="113.00" routeLength="994.90" waitingTime="23.00" waitingCount="2" stopTime="0.00" timeLoss="37.60" rerouteNo="0" devices="tripinfo_flow_ns_j2.8" vType="passenger" speedFactor="0.96" vaporized=""/>
    <tripinfo id="flow_ns_j2.11" depart="139.00" departLane="E5_1" departPos="5.10" departSpeed="14.12" departDelay="0.85" arrival="222.00" arrivalLane="E6_1" arrivalPos="496.00" arrivalSpeed="13.90" duration="83.00" routeLength="994.90" waitingTime="1.00" waitingCount="1" stopTime="0.00" timeLoss="11.72" rerouteNo="0" devices="tripinfo_flow_ns_j2.11" vType="passenger" speedFactor="1.02" vaporized=""/>
    <tripinfo id="flow_ns_j2.10" depart="128.00" departLane="E5_0" departPos="5.10" departSpeed="11.81" departDelay="0.14" arrival="226.00" arrivalLane="E6_0" arrivalPos="496.00" arrivalSpeed="11.29" duration="98.00" routeLength="994.90" waitingTime="4.00" waitingCount="1" stopTime="0.00" timeLoss="12.84" rerouteNo="0" devices="tripinfo_flow_ns_j2.10" vType="passenger" speedFactor="0.85" vaporized=""/>
    <tripinfo id="flow_ns_j2.13" depart="159.00" departLane="E5_1" departPos="5.10" departSpeed="15.55" departDelay="0.28" arrival="227.00" arrivalLane="E6_1" arrivalPos="496.00" arrivalSpeed="14.76" duration="68.00" routeLength="994.90" waitingTime="0.00" waitingCount="0" stopTime="0.00" timeLoss="3.07" rerouteNo="0" devices="tripinfo_flow_ns_j2.13" vType="passenger" speedFactor="1.12" vaporized=""/>
    <tripinfo id="flow_ns_j3.12" depart="154.00" departLane="E7_1" departPos="5.10" departSpeed="13.47" departDelay="0.57" arrival="232.00" arrivalLane="E8_0" arrivalPos="496.00" arrivalSpeed="13.40" duration="78.00" routeLength="994.90" waitingTime="0.00" waitingCount="0" stopTime="0.00" timeLoss="3.58" rerouteNo="0" devices="tripinfo_flow_ns_j3.12" vType="passenger" speedFactor="0.97" vaporized=""/>
    <tripinfo id="flow_ns_j2.12" depart="149.00" departLane="E5_0" departPos="5.10" departSpeed="12.49" departDelay="0.57" arrival="233.00" arrivalLane="E6_0" arrivalPos="496.00" arrivalSpeed="12.06" duration="84.00" routeLength="994.90" waitingTime="0.00" waitingCount="0" stopTime="0.00" timeLoss="4.03" rerouteNo="0" devices="tripinfo_flow_ns_j2.12" vType="passenger" speedFactor="0.90" vaporized=""/>
    <tripinfo id="flow_ew_j2.1" depart="24.00" departLane="E1_1" departPos="5.10" departSpeed="12.31" departDelay="0.00" arrival="248.00" arrivalLane="E3_0" arrivalPos="489.60" arrivalSpeed="11.66" duration="224.00" routeLength="1494.90" waitingTime="85.00" waitingCount="2" stopTime="0.00" timeLoss="101.83" rerouteNo="0" devices="tripinfo_flow_ew_j2.1" vType="passenger" speedFactor="0.89" vaporized=""/>
    <tripinfo id="flow_ew_j2.2" depart="33.00" departLane="E1_0" departPos="5.10" departSpeed="14.26" departDelay="0.00" arrival="249.00" arrivalLane="E3_0" arrivalPos="489.60" arrivalSpeed="14.04" duration="216.00" routeLength="1494.90" waitingTime="82.00" waitingCount="2" stopTime="0.00" timeLoss="111.00" rerouteNo="0" devices="tripinfo_flow_ew_j2.2" vType="passenger" speedFactor="1.03" vaporized=""/>
    <tripinfo id="flow_ns_j3.13" depart="164.00" departLane="E7_1" departPos="5.10" departSpeed="13.71" departDelay="0.28" arrival="249.00" arrivalLane="E8_0" arrivalPos="496.00" arrivalSpeed="12.84" duration="85.00" routeLength="994.90" waitingTime="1.00" waitingCount="1" stopTime="0.00" timeLoss="11.74" rerouteNo="0" devices="tripinfo_flow_ns_j3.13" vType="passenger" speedFactor="0.99" vaporized=""/>
    <tripinfo id="flow_ew_j2.0" depart="15.00" departLane="E1_1" departPos="5.10" departSpeed="11.54" departDelay="0.00" arrival="250.00" arrivalLane="E3_0" arrivalPos="489.60" arrivalSpeed="10.67" duration="235.00" routeLength="1494.90" waitingTime="91.00" waitingCount="2" stopTime="0.00" timeLoss="105.40" rerouteNo="0" devices="tripinfo_flow_ew_j2.0" vType="passenger" speedFactor="0.83" vaporized=""/>
    <tripinfo id="flow_ns_j2.14" depart="170.00" departLane="E5_0" departPos="5.10" departSpeed="12.26" departDelay="1.00" arrival="256.00" arrivalLane="E6_0" arrivalPos="496.00" arrivalSpeed="11.64" duration="86.00" routeLength="994.90" waitingTime="0.00" waitingCount="0" stopTime="0.00" timeLoss="4.64" rerouteNo="0" devices="tripinfo_flow_ns_j2.14" vType="passenger" speedFactor="0.88" vaporized=""/>
    <tripinfo id="flow_ew_j2.3" depart="42.00" departLane="E1_1" departPos="5.10" departSpeed="13.77" departDelay="0.00" arrival="258.00" arrivalLane="E3_0" arrivalPos="489.60" arrivalSpeed="13.27" duration="216.00" routeLength="1494.90" waitingTime="80.00" waitingCount="4" stopTime="0.00" timeLoss="107.04" rerouteNo="0" devices="tripinfo_flow_ew_j2.3" vType="passenger" speedFactor="0.99" vaporized=""/>
    <tripinfo id="flow_ew_j2.5" depart="60.00" departLane="E1_0" departPos="5.10" departSpeed="13.54" departDelay="0.00" arrival="262.00" arrivalLane="E3_1" arrivalPos="489.60" arrivalSpeed="12.37" duration="202.00" routeLength="1494.90" waitingTime="64.00" waitingCount="4" stopTime="0.00" timeLoss="90.88" rerouteNo="0" devices="tripinfo_flow_ew_j2.5" vType="passenger" speedFactor="0.97" vaporized=""/>
    <tripinfo id="flow_ew_j2.4" depart="51.00" departLane="E1_0" departPos="5.10" departSpeed="13.00" departDelay="0.00" arrival="264.00" arrivalLane="E3_0" arrivalPos="489.60" arrivalSpeed="12.11" duration="213.00" routeLength="1494.90" waitingTime="67.00" waitingCount="4" stopTime="0.00" timeLoss="97.95" rerouteNo="0" devices="tripinfo_flow_ew_j2.4" vType="passenger" speedFactor="0.94" vaporized=""/>
    <tripinfo id="flow_ns_j2.16" depart="190.00" departLane="E5_0" departPos="5.10" departSpeed="14.66" departDelay="0.42" arrival="270.00" arrivalLane="E6_1" arrivalPos="496.00" arrivalSpeed="14.61" duration="80.00" routeLength="994.90" waitingTime="3.00" waitingCount="1" stopTime="0.00" timeLoss="11.29" rerouteNo="0" devices="tripinfo_flow_ns_j2.16" vType="passenger" speedFactor="1.06" vaporized=""/>
    <tripinfo id="flow_ns_j2.15" depart="180.00" departLane="E5_1" departPos="5.10" departSpeed="14.20" departDelay="0.71" arrival="271.00" arrivalLane="E6_0" arrivalPos="496.00" arrivalSpeed="13.91" duration="91.00" routeLength="994.90" waitingTime="12.00" waitingCount="1" stopTime="0.00" timeLoss="20.02" rerouteNo="0" devices="tripinfo_flow_ns_j2.15" vType="passenger" speedFactor="1.02" vaporized=""/>
    <tripinfo id="flow_ns_j3.15" depart="185.00" departLane="E7_1" departPos="5.10" departSpeed="14.21" departDelay="0.71" arrival="274.00" arrivalLane="E8_0" arrivalPos="496.00" arrivalSpeed="13.39" duration="89.00" routeLength="994.90" waitingTime="11.00" waitingCount="1" stopTime="0.00" timeLoss="18.57" rerouteNo="0" devices="tripinfo_flow_ns_j3.15" vType="passenger" speedFactor="1.02" vaporized=""/>
    <tripinfo id="flow_ns_j3.16" depart="195.00" departLane="E7_0" departPos="5.10" departSpeed="13.68" departDelay="0.42" arrival="278.00" arrivalLane="E8_1" arrivalPos="496.00" arrivalSpeed="13.38" duration="83.00" routeLength="994.90" waitingTime="0.00" waitingCount="0" stopTime="0.00" timeLoss="9.41" rerouteNo="0" devices="tripinfo_flow_ns_j3.16" vType="passenger" speedFactor="0.98" vaporized=""/>
    <tripinfo id="flow_ns_j3.14" depart="175.00" departLane="E7_1" departPos="5.10" departSpeed="12.60" departDelay="1.00" arrival="279.00" arrivalLane="E8_0" arrivalPos="496.00" arrivalSpeed="11.68" duration="104.00" routeLength="994.90" waitingTime="16.00" waitingCount="1" stopTime="0.00" timeLoss="24.62" rerouteNo="0" devices="tripinfo_flow_ns_j3.14" vType="passenger" speedFactor="0.91" vaporized=""/>
    <tripinfo id="flow_ns_j3.17" depart="205.00" departLane="E7_1" departPos="5.10" departSpeed="15.10" departDelay="0.14" arrival="282.00" arrivalLane="E8_0" arrivalPos="496.00" arrivalSpeed="14.66" duration="77.00" routeLength="994.90" waitingTime="3.00" waitingCount="1" stopTime="0.00" timeLoss="10.65" rerouteNo="0" devices="tripinfo_flow_ns_j3.17" vType="passenger" speedFactor="1.09" vaporized=""/>
    <tripinfo id="flow_ns_j2.18" depart="211.00" departLane="E5_1" departPos="5.10" departSpeed="14.37" departDelay="0.85" arrival="284.00" arrivalLane="E6_0" arrivalPos="496.00" arrivalSpeed="14.17" duration="73.00" routeLength="994.90" waitingTime="0.00" waitingCount="0" stopTime="0.00" timeLoss="3.42" rerouteNo="0" devices="tripinfo_flow_ns_j2.18" vType="passenger" speedFactor="1.03" vaporized=""/>
    <tripinfo id="flow_ew_full.1" depart="32.00" departLane="E1_1" departPos="5.10" departSpeed="15.15" departDelay="0.00" arrival="286.00" arrivalLane="E4_0" arrivalPos="500.00" arrivalSpeed="14.94" duration="254.00" routeLength="1995.00" waitingTime="83.00" waitingCount="2" stopTime="0.00" timeLoss="121.93" rerouteNo="0" devices="tripinfo_flow_ew_full.1" vType="passenger" speedFactor="1.09" vaporized=""/>
    <tripinfo id="flow_ns_j2.17" depart="200.00" departLane="E5_1" departPos="5.10" departSpeed="13.64" departDelay="0.14" arrival="288.00" arrivalLane="E6_0" arrivalPos="496.00" arrivalSpeed="13.12" duration="88.00" routeLength="994.90" waitingTime="6.00" waitingCount="1" stopTime="0.00" timeLoss="14.18" rerouteNo="0" devices="tripinfo_flow_ns_j2.17" vType="passenger" speedFactor="0.98" vaporized=""/>
    <tripinfo id="emergency_flow.0" depart="50.00" departLane="E1_1" departPos="6.10" departSpeed="13.08" departDelay="0.00" arrival="297.00" arrivalLane="E4_0" arrivalPos="500.00" arrivalSpeed="13.06" duration="247.00" routeLength="1994.00" waitingTime="72.00" waitingCount="4" stopTime="0.00" timeLoss="93.87" rerouteNo="0" devices="tripinfo_emergency_flow.0" vType="emergency" speedFactor="0.94" vaporized=""/>
    <tripinfo id="flow_ew_full.3" depart="56.00" departLane="E1_1" departPos="5.10" departSpeed="14.14" departDelay="0.00" arrival="297.00" arrivalLane="E4_1" arrivalPos="500.00" arrivalSpeed="12.88" duration="241.00" routeLength="1995.00" waitingTime="68.00" waitingCount="4" stopTime="0.00" timeLoss="99.43" rerouteNo="0" devices="tripinfo_flow_ew_full.3" vType="passenger" speedFactor="1.02" vaporized=""/>
    <tripinfo id="flow_ew_j2.7" depart="78.00" departLane="E1_1" departPos="5.10" departSpeed="12.94" departDelay="0.00" arrival="298.00" arrivalLane="E3_0" arrivalPos="489.60" arrivalSpeed="11.77" duration="220.00" routeLength="1494.90" waitingTime="68.00" waitingCount="4" stopTime="0.00" timeLoss="104.40" rerouteNo="0" devices="tripinfo_flow_ew_j2.7" vType="passenger" speedFactor="0.93" vaporized=""/>
    <tripinfo id="flow_ew_j2.6" depart="69.00" departLane="E1_0" departPos="5.10" departSpeed="12.74" departDelay="0.00" arrival="301.00" arrivalLane="E3_1" arrivalPos="489.60" arrivalSpeed="11.84" duration="232.00" routeLength="1494.90" waitingTime="75.00" waitingCount="5" stopTime="0.00" timeLoss="113.93" rerouteNo="0" devices="tripinfo_flow_ew_j2.6" vType="passenger" speedFactor="0.92" vaporized=""/>
    <tripinfo id="flow_ew_full.2" depart="44.00" departLane="E1_0" departPos="5.10" departSpeed="12.87" departDelay="0.00" arrival="303.00" arrivalLane="E4_0" arrivalPos="500.00" arrivalSpeed="11.85" duration="259.00" routeLength="1995.00" waitingTime="74.00" waitingCount="4" stopTime="0.00" timeLoss="103.97" rerouteNo="0" devices="tripinfo_flow_ew_full.2" vType="passenger" speedFactor="0.93" vaporized=""/>
    <tripinfo id="flow_ns_j3.19" depart="226.00" departLane="E7_1" departPos="5.10" departSpeed="14.48" departDelay="0.57" arrival="304.00" arrivalLane="E8_0" arrivalPos="496.00" arrivalSpeed="13.32" duration="78.00" routeLength="994.90" waitingTime="1.00" waitingCount="1" stopTime="0.00" timeLoss="8.95" rerouteNo="0" devices="tripinfo_flow_ns_j3.19" vType="passenger" speedFactor="1.04" vaporized=""/>
    <tripinfo id="flow_ns_j3.18" depart="216.00" departLane="E7_0" departPos="5.10" departSpeed="13.43" departDelay="0.85" arrival="308.00" arrivalLane="E8_0" arrivalPos="496.00" arrivalSpeed="12.57" duration="92.00" routeLength="994.90" waitingTime="9.00" waitingCount="1" stopTime="0.00" timeLoss="17.53" rerouteNo="0" devices="tripinfo_flow_ns_j3.18" vType="passenger" speedFactor="0.97" vaporized=""/>
    <tripinfo id="flow_ns_j2.19" depart="221.00" departLane="E5_1" departPos="5.10" departSpeed="15.94" departDelay="0.57" arrival="313.00" arrivalLane="E6_0" arrivalPos="496.00" arrivalSpeed="15.03" duration="92.00" routeLength="994.90" waitingTime="20.00" waitingCount="1" stopTime="0.00" timeLoss="28.72" rerouteNo="0" devices="tripinfo_flow_ns_j2.19" vType="passenger" speedFactor="1.15" vaporized=""/>
    <tripinfo id="flow_ns_j2.20" depart="231.00" departLane="E5_0" departPos="5.10" departSpeed="14.20" departDelay="0.28" arrival="316.00" arrivalLane="E6_0" arrivalPos="496.00" arrivalSpeed="14.08" duration="85.00" routeLength="994.90" waitingTime="7.00" waitingCount="1" stopTime="0.00" timeLoss="14.61" rerouteNo="0" devices="tripinfo_flow_ns_j2.20" vType="passenger" speedFactor="1.02" vaporized=""/>
    <tripinfo id="flow_ew_j2.10" depart="105.00" departLane="E1_0" departPos="5.10" departSpeed="14.31" departDelay="0.00" arrival="319.00" arrivalLane="E3_1" arrivalPos="489.60" arrivalSpeed="14.26" duration="214.00" routeLength="1494.90" waitingTime="76.00" waitingCount="4" stopTime="0.00" timeLoss="109.39" rerouteNo="0" devices="tripinfo_flow_ew_j2.10" vType="passenger" speedFactor="1.03" vaporized=""/>
    <tripinfo id="flow_ew_j2.8" depart="87.00" departLane="E1_1" departPos="5.10" departSpeed="13.96" departDelay="0.00" arrival="322.00" arrivalLane="E3_0" arrivalPos="489.60" arrivalSpeed="12.95" duration="235.00" routeLength="1494.90" waitingTime="91.00" waitingCount="5" stopTime="0.00" timeLoss="127.75" rerouteNo="0" devices="tripinfo_flow_ew_j2.8" vType="passenger" speedFactor="1.01" vaporized=""/>
    <tripinfo id="flow_ew_j2.11" depart="114.00" departLane="E1_0" departPos="5.10" departSpeed="14.42" departDelay="0.00" arrival="330.00" arrivalLane="E3_0" arrivalPos="489.60" arrivalSpeed="14.15" duration="216.00" routeLength="1494.90" waitingTime="74.00" waitingCount="5" stopTime="0.00" timeLoss="111.60" rerouteNo="0" devices="tripinfo_flow_ew_j2.11" vType="passenger" speedFactor="1.04" vaporized=""/>
    <tripinfo id="flow_ew_j2.9" depart="96.00" departLane="E1_1" departPos="5.10" departSpeed="13.52" departDelay="0.00" arrival="331.00" arrivalLane="E3_0" arrivalPos="489.60" arrivalSpeed="12.92" duration="235.00" routeLength="1494.90" waitingTime="80.00" waitingCount="6" stopTime="0.00" timeLoss="123.80" rerouteNo="0" devices="tripinfo_flow_ew_j2.9" vType="passenger" speedFactor="0.97" vaporized=""/>
    <tripinfo id="flow_ew_full.5" depart="80.00" departLane="E1_0" departPos="5.10" departSpeed="16.37" departDelay="0.00" arrival="334.00" arrivalLane="E4_0" arrivalPos="500.00" arrivalSpeed="16.20" duration="254.00" routeLength="1995.00" waitingTime="92.00" waitingCount="4" stopTime="0.00" timeLoss="131.71" rerouteNo="0" devices="tripinfo_flow_ew_full.5" vType="passenger" speedFactor="1.18" vaporized=""/>
    <tripinfo id="flow_ns_j2.22" depart="252.00" departLane="E5_1" departPos="5.10" departSpeed="12.59" departDelay="0.71" arrival="336.00" arrivalLane="E6_1" arrivalPos="496.00" arrivalSpeed="12.07" duration="84.00" routeLength="994.90" waitingTime="0.00" waitingCount="0" stopTime="0.00" timeLoss="4.25" rerouteNo="0" devices="tripinfo_flow_ns_j2.22" vType="passenger" speedFactor="0.91" vaporized=""/>
    <tripinfo id="flow_ns_j2.21" depart="242.00" departLane="E5_1" departPos="5.10" departSpeed="12.80" departDelay="0.99" arrival="337.00" arrivalLane="E6_0" arrivalPos="496.00" arrivalSpeed="12.54" duration="95.00" routeLength="994.90" waitingTime="7.00" waitingCount="1" stopTime="0.00" timeLoss="16.35" rerouteNo="0" devices="tripinfo_flow_ns_j2.21" vType="passenger" speedFactor="0.92" vaporized=""/>
    <tripinfo id="flow_ew_full.4" depart="68.00" departLane="E1_1" departPos="5.10" departSpeed="12.12" departDelay="0.00" arrival="345.00" arrivalLane="E4_0" arrivalPos="500.00" arrivalSpeed="11.22" duration="277.00" routeLength="1995.00" waitingTime="76.00" waitingCount="4" stopTime="0.00" timeLoss="111.92" rerouteNo="0" devices="tripinfo_flow_ew_full.4" vType="passenger" speedFactor="0.87" vaporized=""/>
    <tripinfo id="flow_ns_j3.21" depart="247.00" departLane="E7_1" departPos="5.10" departSpeed="15.15" departDelay="0.99" arrival="346.00" arrivalLane="E8_0" arrivalPos="496.00" arrivalSpeed="14.56" duration="99.00" routeLength="994.90" waitingTime="24.00" waitingCount="1" stopTime="0.00" timeLoss="33.00" rerouteNo="0" devices="tripinfo_flow_ns_j3.21" vType="passenger" speedFactor="1.09" vaporized=""/>
    <tripinfo id="flow_ns_j3.20" depart="236.00" departLane="E7_1" departPos="5.10" departSpeed="12.39" departDelay="0.28" arrival="353.00" arrivalLane="E8_0" arrivalPos="496.00" arrivalSpeed="12.26" duration="117.00" routeLength="994.90" waitingTime="29.00" waitingCount="1" stopTime="0.00" timeLoss="36.56" rerouteNo="0" devices="tripinfo_flow_ns_j3.20" vType="passenger" speedFactor="0.89" vaporized=""/>
    <tripinfo id="flow_ns_j3.23" depart="267.00" departLane="E7_1" departPos="5.10" departSpeed="13.23" departDelay="0.42" arrival="353.00" arrivalLane="E8_1" arrivalPos="496.00" arrivalSpeed="12.28" duration="86.00" routeLength="994.90" waitingTime="2.00" waitingCount="1" stopTime="0.00" timeLoss="10.30" rerouteNo="0" devices="tripinfo_flow_ns_j3.23" vType="passenger" speedFactor="0.95" vaporized=""/>