<?xml version="1.0" encoding="UTF-8"?>

<!-- generated on 2025-10-15 16:30:25 by Eclipse SUMO GUI Version 1.22.0
<sumoConfiguration xmlns:xsi="http://www.w3.org/2001/XMLSchema-instance" xsi:noNamespaceSchemaLocation="http://sumo.dlr.de/xsd/sumoConfiguration.xsd">

    <input>
        <net-file value="maps/simple_network.net.xml"/>
        <route-files value="maps/routes.rou.xml"/>
    </input>

    <output>
        <summary-output value="output/summary.xml"/>
        <tripinfo-output value="output/tripinfo.xml"/>
    </output>

    <time>
        <begin value="0"/>
        <end value="3600"/>
        <step-length value="1"/>
    </time>

    <processing>
        <time-to-teleport value="300"/>
    </processing>

    <traci_server>
        <remote-port value="50238"/>
    </traci_server>

    <gui_only>
        <gui-settings-file value="maps/gui-settings.cfg"/>
        <quit-on-end value="false"/>
        <start value="true"/>
    </gui_only>

</sumoConfiguration>
-->

<tripinfos xmlns:xsi="http://www.w3.org/2001/XMLSchema-instance" xsi:noNamespaceSchemaLocation="http://sumo.dlr.de/xsd/tripinfo_file.xsd">
    <tripinfo id="test_vehicle_4" depart="7.00" departLane="E7_0" departPos="5.10" departSpeed="0.00" departDelay="0.00" arrival="80.00" arrivalLane="E8_0" arrivalPos="496.00" arrivalSpeed="14.87" duration="73.00" routeLength="994.90" waitingTime="0.00" waitingCount="0" stopTime="0.00" timeLoss="5.96" rerouteNo="0" devices="tripinfo_test_vehicle_4" vType="passenger" speedFactor="1.08" vaporized=""/>
    <tripinfo id="test_vehicle_2" depart="3.00" departLane="E5_0" departPos="5.10" departSpeed="0.00" departDelay="0.00" arrival="86.00" arrivalLane="E6_0" arrivalPos="496.00" arrivalSpeed="12.42" duration="83.00" routeLength="994.90" waitingTime="0.00" waitingCount="0" stopTime="0.00" timeLoss="6.32" rerouteNo="0" devices="tripinfo_test_vehicle_2" vType="passenger" speedFactor="0.94" vaporized=""/>
    <tripinfo id="flow_ns_j3.1" depart="41.00" departLane="E7_1" departPos="5.10" departSpeed="15.60" departDelay="0.71" arrival="108.00" arrivalLane="E8_0" arrivalPos="496.00" arrivalSpeed="14.38" duration="67.00" routeLength="994.90" waitingTime="0.00" waitingCount="0" stopTime="0.00" timeLoss="2.97" rerouteNo="0" devices="tripinfo_flow_ns_j3.1" vType="passenger" speedFactor="1.12" vaporized=""/>
    <tripinfo id="test_vehicle_1" depart="1.00" departLane="E1_0" departPos="5.10" departSpeed="0.00" departDelay="0.00" arrival="111.00" arrivalLane="E3_0" arrivalPos="489.60" arrivalSpeed="14.10" duration="110.00" routeLength="1494.90" waitingTime="0.00" waitingCount="0" stopTime="0.00" timeLoss="8.19" rerouteNo="0" devices="tripinfo_test_vehicle_1" vType="passenger" speedFactor="1.06" vaporized=""/>
    <tripinfo id="flow_ns_j2.1" depart="36.00" departLane="E5_1" departPos="5.10" departSpeed="14.54" departDelay="0.71" arrival="113.00" arrivalLane="E6_0" arrivalPos="496.00" arrivalSpeed="13.27" duration="77.00" routeLength="994.90" waitingTime="0.00" waitingCount="0" stopTime="0.00" timeLoss="8.32" rerouteNo="0" devices="tripinfo_flow_ns_j2.1" vType="passenger" speedFactor="1.05" vaporized=""/>
    <tripinfo id="flow_ns_j3.2" depart="51.00" departLane="E7_0" departPos="5.10" departSpeed="16.09" departDelay="0.43" arrival="116.00" arrivalLane="E8_1" arrivalPos="496.00" arrivalSpeed="15.20" duration="65.00" routeLength="994.90" waitingTime="0.00" waitingCount="0" stopTime="0.00" timeLoss="2.55" rerouteNo="0" devices="tripinfo_flow_ns_j3.2" vType="passenger" speedFactor="1.16" vaporized=""/>
    <tripinfo id="flow_ns_j2.0" depart="25.00" departLane="E5_1" departPos="5.10" departSpeed="13.03" departDelay="0.00" arrival="117.00" arrivalLane="E6_0" arrivalPos="496.00" arrivalSpeed="11.84" duration="92.00" routeLength="994.90" waitingTime="7.00" waitingCount="1" stopTime="0.00" timeLoss="15.11" rerouteNo="0" devices="tripinfo_flow_ns_j2.0" vType="passenger" speedFactor="0.94" vaporized=""/>
    <tripinfo id="flow_ns_j3.0" depart="30.00" departLane="E7_1" departPos="5.10" departSpeed="11.90" departDelay="0.00" arrival="119.00" arrivalLane="E8_0" arrivalPos="496.00" arrivalSpeed="11.17" duration="89.00" routeLength="994.90" waitingTime="0.00" waitingCount="0" stopTime="0.00" timeLoss="4.69" rerouteNo="0" devices="tripinfo_flow_ns_j3.0" vType="passenger" speedFactor="0.86" vaporized=""/>
    <tripinfo id="test_vehicle_3" depart="5.00" departLane="E1_0" departPos="5.10" departSpeed="0.00" departDelay="0.00" arrival="123.00" arrivalLane="E3_0" arrivalPos="489.60" arrivalSpeed="13.70" duration="118.00" routeLength="1494.90" waitingTime="0.00" waitingCount="0" stopTime="0.00" timeLoss="10.64" rerouteNo="0" devices="tripinfo_test_vehicle_3" vType="passenger" speedFactor="1.01" vaporized=""/>
    <tripinfo id="flow_ns_j2.3" depart="56.00" departLane="E5_1" departPos="5.10" departSpeed="14.03" departDelay="0.14" arrival="136.00" arrivalLane="E6_1" arrivalPos="496.00" arrivalSpeed="13.51" duration="80.00" routeLength="994.90" waitingTime="1.00" waitingCount="1" stopTime="0.00" timeLoss="8.84" rerouteNo="0" devices="tripinfo_flow_ns_j2.3" vType="passenger" speedFactor="1.01" vaporized=""/>
    <tripinfo id="flow_ns_j2.2" depart="46.00" departLane="E5_1" departPos="5.10" departSpeed="12.20" departDelay="0.43" arrival="137.00" arrivalLane="E6_0" arrivalPos="496.00" arrivalSpeed="11.63" duration="91.00" routeLength="994.90" waitingTime="0.00" waitingCount="0" stopTime="0.00" timeLoss="8.90" rerouteNo="0" devices="tripinfo_flow_ns_j2.2" vType="passenger" speedFactor="0.88" vaporized=""/>
    <tripinfo id="flow_ns_j3.3" depart="61.00" departLane="E7_1" departPos="5.10" departSpeed="12.36" departDelay="0.14" arrival="147.00" arrivalLane="E8_0" arrivalPos="496.00" arrivalSpeed="12.31" duration="86.00" routeLength="994.90" waitingTime="0.00" waitingCount="0" stopTime="0.00" timeLoss="4.81" rerouteNo="0" devices="tripinfo_flow_ns_j3.3" vType="passenger" speedFactor="0.89" vaporized=""/>
    <tripinfo id="flow_ns_j3.5" depart="82.00" departLane="E7_1" departPos="5.10" departSpeed="16.03" departDelay="0.57" arrival="147.00" arrivalLane="E8_1" arrivalPos="496.00" arrivalSpeed="14.87" duration="65.00" routeLength="994.90" waitingTime="0.00" waitingCount="0" stopTime="0.00" timeLoss="2.82" rerouteNo="0" devices="tripinfo_flow_ns_j3.5" vType="passenger" speedFactor="1.15" vaporized=""/>
    <tripinfo id="flow_ns_j3.4" depart="72.00" departLane="E7_1" departPos="5.10" departSpeed="13.18" departDelay="0.86" arrival="152.00" arrivalLane="E8_0" arrivalPos="496.00" arrivalSpeed="12.36" duration="80.00" routeLength="994.90" waitingTime="0.00" waitingCount="0" stopTime="0.00" timeLoss="4.31" rerouteNo="0" devices="tripinfo_flow_ns_j3.4" vType="passenger" speedFactor="0.95" vaporized=""/>
    <tripinfo id="flow_ew_j2.1" depart="24.00" departLane="E1_1" departPos="5.10" departSpeed="12.31" departDelay="0.00" arrival="153.00" arrivalLane="E3_0" arrivalPos="489.60" arrivalSpeed="11.97" duration="129.00" routeLength="1494.90" waitingTime="0.00" waitingCount="0" stopTime="0.00" timeLoss="7.20" rerouteNo="0" devices="tripinfo_flow_ew_j2.1" vType="passenger" speedFactor="0.89" vaporized=""/>
    <tripinfo id="emergency_1" depart="10.00" departLane="E1_0" departPos="6.10" departSpeed="0.00" departDelay="0.00" arrival="155.00" arrivalLane="E4_0" arrivalPos="500.00" arrivalSpeed="13.93" duration="145.00" routeLength="1994.00" waitingTime="0.00" waitingCount="0" stopTime="0.00" timeLoss="5.22" rerouteNo="0" devices="tripinfo_emergency_1" vType="emergency" speedFactor="1.03" vaporized=""/>
    <tripinfo id="flow_ew_j2.0" depart="15.00" departLane="E1_1" departPos="5.10" departSpeed="11.54" departDelay="0.00" arrival="156.00" arrivalLane="E3_0" arrivalPos="489.60" arrivalSpeed="10.28" duration="141.00" routeLength="1494.90" waitingTime="0.00" waitingCount="0" stopTime="0.00" timeLoss="11.02" rerouteNo="0" devices="tripinfo_flow_ew_j2.0" vType="passenger" speedFactor="0.83" vaporized=""/>
    <tripinfo id="flow_ew_j2.2" depart="33.00" departLane="E1_0" departPos="5.10" departSpeed="14.26" departDelay="0.00" arrival="162.00" arrivalLane="E3_0" arrivalPos="489.60" arrivalSpeed="13.42" duration="129.00" routeLength="1494.90" waitingTime="12.00" waitingCount="1" stopTime="0.00" timeLoss="23.37" rerouteNo="0" devices="tripinfo_flow_ew_j2.2" vType="passenger" speedFactor="1.03" vaporized=""/>
    <tripinfo id="flow_ns_j2.5" depart="77.00" departLane="E5_1" departPos="5.10" departSpeed="15.72" departDelay="0.57" arrival="163.00" arrivalLane="E6_0" arrivalPos="496.00" arrivalSpeed="15.63" duration="86.00" routeLength="994.90" waitingTime="13.00" waitingCount="1" stopTime="0.00" timeLoss="21.92" rerouteNo="0" devices="tripinfo_flow_ns_j2.5" vType="passenger" speedFactor="1.13" vaporized=""/>
    <tripinfo id="flow_ns_j2.7" depart="98.00" departLane="E5_1" departPos="5.10" departSpeed="16.39" departDelay="1.00" arrival="163.00" arrivalLane="E6_1" arrivalPos="496.00" arrivalSpeed="15.64" duration="65.00" routeLength="994.90" waitingTime="0.00" waitingCount="0" stopTime="0.00" timeLoss="3.57" rerouteNo="0" devices="tripinfo_flow_ns_j2.7" vType="passenger" speedFactor="1.18" vaporized=""/>
    <tripinfo id="flow_ew_j2.3" depart="42.00" departLane="E1_1" departPos="5.10" departSpeed="13.77" departDelay="0.00" arrival="165.00" arrivalLane="E3_0" arrivalPos="489.60" arrivalSpeed="12.74" duration="123.00" routeLength="1494.90" waitingTime="1.00" waitingCount="1" stopTime="0.00" timeLoss="13.78" rerouteNo="0" devices="tripinfo_flow_ew_j2.3" vType="passenger" speedFactor="0.99" vaporized=""/>
    <tripinfo id="flow_ns_j2.6" depart="87.00" departLane="E5_0" departPos="5.10" departSpeed="16.28" departDelay="0.28" arrival="165.00" arrivalLane="E6_1" arrivalPos="496.00" arrivalSpeed="15.34" duration="78.00" routeLength="994.90" waitingTime="5.00" waitingCount="1" stopTime="0.00" timeLoss="16.22" rerouteNo="0" devices="tripinfo_flow_ns_j2.6" vType="passenger" speedFactor="1.17" vaporized=""/>
    <tripinfo id="flow_ns_j3.6" depart="92.00" departLane="E7_0" departPos="5.10" departSpeed="14.16" departDelay="0.28" arrival="170.00" arrivalLane="E8_0" arrivalPos="496.00" arrivalSpeed="13.23" duration="78.00" routeLength="994.90" waitingTime="0.00" waitingCount="0" stopTime="0.00" timeLoss="7.41" rerouteNo="0" devices="tripinfo_flow_ns_j3.6" vType="passenger" speedFactor="1.02" vaporized=""/>
    <tripinfo id="flow_ew_full.1" depart="32.00" departLane="E1_1" departPos="5.10" departSpeed="15.15" departDelay="0.00" arrival="171.00" arrivalLane="E4_0" arrivalPos="500.00" arrivalSpeed="13.93" duration="139.00" routeLength="1995.00" waitingTime="0.00" waitingCount="0" stopTime="0.00" timeLoss="7.04" rerouteNo="0" devices="tripinfo_flow_ew_full.1" vType="passenger" speedFactor="1.09" vaporized=""/>
    <tripinfo id="flow_ew_full.0" depart="20.00" departLane="E1_0" departPos="5.10" departSpeed="14.53" departDelay="0.00" arrival="173.00" arrivalLane="E4_0" arrivalPos="500.00" arrivalSpeed="14.29" duration="153.00" routeLength="1995.00" waitingTime="4.00" waitingCount="1" stopTime="0.00" timeLoss="15.04" rerouteNo="0" devices="tripinfo_flow_ew_full.0" vType="passenger" speedFactor="1.05" vaporized=""/>
    <tripinfo id="flow_ns_j3.7" depart="103.00" departLane="E7_1" departPos="5.10" departSpeed="15.31" departDelay="1.00" arrival="173.00" arrivalLane="E8_0" arrivalPos="496.00" arrivalSpeed="14.93" duration="70.00" routeLength="994.90" waitingTime="0.00" waitingCount="0" stopTime="0.00" timeLoss="4.93" rerouteNo="0" devices="tripinfo_flow_ns_j3.7" vType="passenger" speedFactor="1.10" vaporized=""/>
    <tripinfo id="flow_ns_j2.4" depart="67.00" departLane="E5_0" departPos="5.10" departSpeed="11.47" departDelay="0.86" arrival="175.00" arrivalLane="E6_0" arrivalPos="496.00" arrivalSpeed="10.22" duration="108.00" routeLength="994.90" waitingTime="11.00" waitingCount="1" stopTime="0.00" timeLoss="20.87" rerouteNo="0" devices="tripinfo_flow_ns_j2.4" vType="passenger" speedFactor="0.83" vaporized=""/>
    <tripinfo id="flow_ns_j2.8" depart="108.00" departLane="E5_0" departPos="5.10" departSpeed="13.29" departDelay="0.71" arrival="187.00" arrivalLane="E6_0" arrivalPos="496.00" arrivalSpeed="13.02" duration="79.00" routeLength="994.90" waitingTime="0.00" waitingCount="0" stopTime="0.00" timeLoss="3.59" rerouteNo="0" devices="tripinfo_flow_ns_j2.8" vType="passenger" speedFactor="0.96" vaporized=""/>
    <tripinfo id="flow_ns_j3.10" depart="133.00" departLane="E7_1" departPos="5.10" departSpeed="16.24" departDelay="0.14" arrival="204.00" arrivalLane="E8_0" arrivalPos="496.00" arrivalSpeed="15.95" duration="71.00" routeLength="994.90" waitingTime="0.00" waitingCount="0" stopTime="0.00" timeLoss="9.08" rerouteNo="0" devices="tripinfo_flow_ns_j3.10" vType="passenger" speedFactor="1.17" vaporized=""/>
    <tripinfo id="flow_ns_j3.8" depart="113.00" departLane="E7_1" departPos="5.10" departSpeed="15.17" departDelay="0.71" arrival="206.00" arrivalLane="E8_0" arrivalPos="496.00" arrivalSpeed="14.23" duration="93.00" routeLength="994.90" waitingTime="18.00" waitingCount="1" stopTime="0.00" timeLoss="27.09" rerouteNo="0" devices="tripinfo_flow_ns_j3.8" vType="passenger" speedFactor="1.09" vaporized=""/>
    <tripinfo id="emergency_flow.0" depart="50.00" departLane="E1_1" departPos="6.10" departSpeed="13.08" departDelay="0.00" arrival="208.00" arrivalLane="E4_0" arrivalPos="500.00" arrivalSpeed="12.70" duration="158.00" routeLength="1994.00" waitingTime="0.00" waitingCount="0" stopTime="0.00" timeLoss="4.66" rerouteNo="0" devices="tripinfo_emergency_flow.0" vType="emergency" speedFactor="0.94" vaporized=""/>
    <tripinfo id="flow_ew_full.2" depart="44.00" departLane="E1_0" departPos="5.10" departSpeed="12.87" departDelay="0.00" arrival="216.00" arrivalLane="E4_0" arrivalPos="500.00" arrivalSpeed="12.48" duration="172.00" routeLength="1995.00" waitingTime="0.00" waitingCount="0" stopTime="0.00" timeLoss="16.57" rerouteNo="0" devices="tripinfo_flow_ew_full.2" vType="passenger" speedFactor="0.93" vaporized=""/>
    <tripinfo id="flow_ns_j3.9" depart="123.00" departLane="E7_1" departPos="5.10" departSpeed="12.51" departDelay="0.43" arrival="216.00" arrivalLane="E8_0" arrivalPos="496.00" arrivalSpeed="12.30" duration="93.00" routeLength="994.90" waitingTime="2.00" waitingCount="1" stopTime="0.00" timeLoss="12.55" rerouteNo="0" devices="tripinfo_flow_ns_j3.9" vType="passenger" speedFactor="0.90" vaporized=""/>
    <tripinfo id="flow_ew_j2.4" depart="51.00" departLane="E1_0" departPos="5.10" departSpeed="13.00" departDelay="0.00" arrival="217.00" arrivalLane="E3_0" arrivalPos="489.60" arrivalSpeed="12.08" duration="166.00" routeLength="1494.90" waitingTime="34.00" waitingCount="1" stopTime="0.00" timeLoss="50.15" rerouteNo="0" devices="tripinfo_flow_ew_j2.4" vType="passenger" speedFactor="0.94" vaporized=""/>
    <tripinfo id="flow_ew_j2.5" depart="60.00" departLane="E1_0" departPos="5.10" departSpeed="13.54" departDelay="0.00" arrival="218.00" arrivalLane="E3_0" arrivalPos="489.60" arrivalSpeed="12.90" duration="158.00" routeLength="1494.90" waitingTime="33.00" waitingCount="1" stopTime="0.00" timeLoss="47.44" rerouteNo="0" devices="tripinfo_flow_ew_j2.5" vType="passenger" speedFactor="0.97" vaporized=""/>
    <tripinfo id="flow_ew_j2.6" depart="69.00" departLane="E1_0" departPos="5.10" departSpeed="12.74" departDelay="0.00" arrival="219.00" arrivalLane="E3_1" arrivalPos="489.60" arrivalSpeed="11.66" duration="150.00" routeLength="1494.90" waitingTime="19.00" waitingCount="1" stopTime="0.00" timeLoss="32.08" rerouteNo="0" devices="tripinfo_flow_ew_j2.6" vType="passenger" speedFactor="0.92" vaporized=""/>
    <tripinfo id="flow_ns_j3.11" depart="144.00" departLane="E7_0" departPos="5.10" departSpeed="13.83" departDelay="0.85" arrival="231.00" arrivalLane="E8_0" arrivalPos="496.00" arrivalSpeed="12.76" duration="87.00" routeLength="994.90" waitingTime="6.00" waitingCount="1" stopTime="0.00" timeLoss="14.35" rerouteNo="0" devices="tripinfo_flow_ns_j3.11" vType="passenger" speedFactor="1.00" vaporized=""/>
    <tripinfo id="flow_ns_j3.12" depart="154.00" departLane="E7_1" departPos="5.10" departSpeed="13.47" departDelay="0.57" arrival="232.00" arrivalLane="E8_1" arrivalPos="496.00" arrivalSpeed="12.96" duration="78.00" routeLength="994.90" waitingTime="0.00" waitingCount="0" stopTime="0.00" timeLoss="3.56" rerouteNo="0" devices="tripinfo_flow_ns_j3.12" vType="passenger" speedFactor="0.97" vaporized=""/>
    <tripinfo id="flow_ns_j2.9" depart="118.00" departLane="E5_1" departPos="5.10" departSpeed="15.11" departDelay="0.43" arrival="240.00" arrivalLane="E6_0" arrivalPos="496.00" arrivalSpeed="14.27" duration="122.00" routeLength="994.90" waitingTime="46.00" waitingCount="1" stopTime="0.00" timeLoss="55.67" rerouteNo="0" devices="tripinfo_flow_ns_j2.9" vType="passenger" speedFactor="1.09" vaporized=""/>
    <tripinfo id="flow_ns_j2.11" depart="139.00" departLane="E5_1" departPos="5.10" departSpeed="14.12" departDelay="0.85" arrival="244.00" arrivalLane="E6_0" arrivalPos="496.00" arrivalSpeed="13.63" duration="105.00" routeLength="994.90" waitingTime="25.00" waitingCount="1" stopTime="0.00" timeLoss="34.19" rerouteNo="0" devices="tripinfo_flow_ns_j2.11" vType="passenger" speedFactor="1.02" vaporized=""/>
    <tripinfo id="flow_ns_j2.13" depart="159.00" departLane="E5_1" departPos="5.10" departSpeed="15.55" departDelay="0.28" arrival="245.00" arrivalLane="E6_1" arrivalPos="496.00" arrivalSpeed="15.24" duration="86.00" routeLength="994.90" waitingTime="8.00" waitingCount="1" stopTime="0.00" timeLoss="21.36" rerouteNo="0" devices="tripinfo_flow_ns_j2.13" vType="passenger" speedFactor="1.12" vaporized=""/>
    <tripinfo id="flow_ns_j3.13" depart="164.00" departLane="E7_1" departPos="5.10" departSpeed="13.71" departDelay="0.28" arrival="246.00" arrivalLane="E8_0" arrivalPos="496.00" arrivalSpeed="12.54" duration="82.00" routeLength="994.90" waitingTime="1.00" waitingCount="1" stopTime="0.00" timeLoss="8.96" rerouteNo="0" devices="tripinfo_flow_ns_j3.13" vType="passenger" speedFactor="0.99" vaporized=""/>
    <tripinfo id="flow_ew_full.3" depart="56.00" departLane="E1_1" departPos="5.10" departSpeed="14.14" departDelay="0.00" arrival="250.00" arrivalLane="E4_0" arrivalPos="500.00" arrivalSpeed="12.96" duration="194.00" routeLength="1995.00" waitingTime="35.00" waitingCount="2" stopTime="0.00" timeLoss="52.13" rerouteNo="0" devices="tripinfo_flow_ew_full.3" vType="passenger" speedFactor="1.02" vaporized=""/>
    <tripinfo id="flow_ns_j2.10" depart="128.00" departLane="E5_0" departPos="5.10" departSpeed="11.81" departDelay="0.14" arrival="250.00" arrivalLane="E6_0" arrivalPos="496.00" arrivalSpeed="10.60" duration="122.00" routeLength="994.90" waitingTime="28.00" waitingCount="1" stopTime="0.00" timeLoss="37.04" rerouteNo="0" devices="tripinfo_flow_ns_j2.10" vType="passenger" speedFactor="0.85" vaporized=""/>
    <tripinfo id="flow_ew_full.5" depart="80.00" departLane="E1_0" departPos="5.10" departSpeed="16.37" departDelay="0.00" arrival="252.00" arrivalLane="E4_0" arrivalPos="500.00" arrivalSpeed="15.65" duration="172.00" routeLength="1995.00" waitingTime="19.00" waitingCount="1" stopTime="0.00" timeLoss="49.47" rerouteNo="0" devices="tripinfo_flow_ew_full.5" vType="passenger" speedFactor="1.18" vaporized=""/>
    <tripinfo id="flow_ew_j2.8" depart="87.00" departLane="E1_1" departPos="5.10" departSpeed="13.96" departDelay="0.00" arrival="253.00" arrivalLane="E3_0" arrivalPos="489.60" arrivalSpeed="12.89" duration="166.00" routeLength="1494.90" waitingTime="43.00" waitingCount="2" stopTime="0.00" timeLoss="58.04" rerouteNo="0" devices="tripinfo_flow_ew_j2.8" vType="passenger" speedFactor="1.01" vaporized=""/>
    <tripinfo id="flow_ew_j2.7" depart="78.00" departLane="E1_1" departPos="5.10" departSpeed="12.94" departDelay="0.00" arrival="256.00" arrivalLane="E3_0" arrivalPos="489.60" arrivalSpeed="11.71" duration="178.00" routeLength="1494.90" waitingTime="41.00" waitingCount="2" stopTime="0.00" timeLoss="61.56" rerouteNo="0" devices="tripinfo_flow_ew_j2.7" vType="passenger" speedFactor="0.93" vaporized=""/>
    <tripinfo id="flow_ns_j2.12" depart="149.00" departLane="E5_0" departPos="5.10" departSpeed="12.49" departDelay="0.57" arrival="258.00" arrivalLane="E6_0" arrivalPos="496.00" arrivalSpeed="12.09" duration="109.00" routeLength="994.90" waitingTime="14.00" waitingCount="2" stopTime="0.00" timeLoss="29.12" rerouteNo="0" devices="tripinfo_flow_ns_j2.12" vType="passenger" speedFactor="0.90" vaporized=""/>
    <tripinfo id="flow_ew_j2.9" depart="96.00" departLane="E1_1" departPos="5.10" departSpeed="13.52" departDelay="0.00" arrival="259.00" arrivalLane="E3_1" arrivalPos="489.60" arrivalSpeed="12.47" duration="163.00" routeLength="1494.90" waitingTime="31.00" waitingCount="2" stopTime="0.00" timeLoss="52.19" rerouteNo="0" devices="tripinfo_flow_ew_j2.9" vType="passenger" speedFactor="0.97" vaporized=""/>
    <tripinfo id="flow_ns_j3.14" depart="175.00" departLane="E7_1" departPos="5.10" departSpeed="12.60" departDelay="1.00" arrival="259.00" arrivalLane="E8_0" arrivalPos="496.00" arrivalSpeed="12.29" duration="84.00" routeLength="994.90" waitingTime="0.00" waitingCount="0" stopTime="0.00" timeLoss="4.33" rerouteNo="0" devices="tripinfo_flow_ns_j3.14" vType="passenger" speedFactor="0.91" vaporized=""/>
    <tripinfo id="flow_ns_j2.15" depart="180.00" departLane="E5_1" departPos="5.10" departSpeed="14.20" departDelay="0.71" arrival="259.00" arrivalLane="E6_1" arrivalPos="496.00" arrivalSpeed="14.07" duration="79.00" routeLength="994.90" waitingTime="0.00" waitingCount="0" stopTime="0.00" timeLoss="8.09" rerouteNo="0" devices="tripinfo_flow_ns_j2.15" vType="passenger" speedFactor="1.02" vaporized=""/>
    <tripinfo id="flow_ew_j2.10" depart="105.00" departLane="E1_0" departPos="5.10" departSpeed="14.31" departDelay="0.00" arrival="261.00" arrivalLane="E3_1" arrivalPos="489.60" arrivalSpeed="13.41" duration="156.00" routeLength="1494.90" waitingTime="23.00" waitingCount="2" stopTime="0.00" timeLoss="51.03" rerouteNo="0" devices="tripinfo_flow_ew_j2.10" vType="passenger" speedFactor="1.03" vaporized=""/>
    <tripinfo id="flow_ns_j3.15" depart="185.00" departLane="E7_1" departPos="5.10" departSpeed="14.21" departDelay="0.71" arrival="263.00" arrivalLane="E8_0" arrivalPos="496.00" arrivalSpeed="13.54" duration="78.00" routeLength="994.90" waitingTime="0.00" waitingCount="0" stopTime="0.00" timeLoss="7.04" rerouteNo="0" devices="tripinfo_flow_ns_j3.15" vType="passenger" speedFactor="1.02" vaporized=""/>
    <tripinfo id="flow_ew_j2.11" depart="114.00" departLane="E1_0" departPos="5.10" departSpeed="14.42" departDelay="0.00" arrival="266.00" arrivalLane="E3_0" arrivalPos="489.60" arrivalSpeed="13.52" duration="152.00" routeLength="1494.90" waitingTime="33.00" waitingCount="2" stopTime="0.00" timeLoss="47.88" rerouteNo="0" devices="tripinfo_flow_ew_j2.11" vType="passenger" speedFactor="1.04" vaporized=""/>
    <tripinfo id="flow_ns_j2.14" depart="170.00" departLane="E5_0" departPos="5.10" departSpeed="12.26" departDelay="1.00" arrival="266.00" arrivalLane="E6_0" arrivalPos="496.00" arrivalSpeed="11.75" duration="96.00" routeLength="994.90" waitingTime="3.00" waitingCount="1" stopTime="0.00" timeLoss="14.05" rerouteNo="0" devices="tripinfo_flow_ns_j2.14" vType="passenger" speedFactor="0.88" vaporized=""/>
    <tripinfo id="flow_ew_full.4" depart="68.00" departLane="E1_1" departPos="5.10" departSpeed="12.12" departDelay="0.00" arrival="267.00" arrivalLane="E4_0" arrivalPos="500.00" arrivalSpeed="11.95" duration="199.00" routeLength="1995.00" waitingTime="19.00" waitingCount="1" stopTime="0.00" timeLoss="33.93" rerouteNo="0" devices="tripinfo_flow_ew_full.4" vType="passenger" speedFactor="0.87" vaporized=""/>
    <tripinfo id="flow_ns_j2.16" depart="190.00" departLane="E5_0" departPos="5.10" departSpeed="14.66" departDelay="0.42" arrival="267.00" arrivalLane="E6_1" arrivalPos="496.00" arrivalSpeed="14.41" duration="77.00" routeLength="994.90" waitingTime="0.00" waitingCount="0" stopTime="0.00" timeLoss="8.53" rerouteNo="0" devices="tripinfo_flow_ns_j2.16" vType="passenger" speedFactor="1.06" vaporized=""/>
    <tripinfo id="flow_ew_j2.12" depart="123.00" departLane="E1_0" departPos="5.10" departSpeed="13.85" departDelay="0.00" arrival="270.00" arrivalLane="E3_0" arrivalPos="489.60" arrivalSpeed="13.83" duration="147.00" routeLength="1494.90" waitingTime="23.00" waitingCount="1" stopTime="0.00" timeLoss="38.34" rerouteNo="0" devices="tripinfo_flow_ew_j2.12" vType="passenger" speedFactor="1.00" vaporized=""/>
    <tripinfo id="flow_ns_j3.16" depart="195.00" departLane="E7_0" departPos="5.10" departSpeed="13.68" departDelay="0.42" arrival="273.00" arrivalLane="E8_0" arrivalPos="496.00" arrivalSpeed="13.25" duration="78.00" routeLength="994.90" waitingTime="0.00" waitingCount="0" stopTime="0.00" timeLoss="4.37" rerouteNo="0" devices="tripinfo_flow_ns_j3.16" vType="passenger" speedFactor="0.98" vaporized=""/>
</tripinfos>
