<?xml version="1.0" encoding="UTF-8"?>

<!-- generated on 2025-11-11 12:53:56 by Eclipse SUMO GUI Version 1.12.0
<configuration xmlns:xsi="http://www.w3.org/2001/XMLSchema-instance" xsi:noNamespaceSchemaLocation="http://sumo.dlr.de/xsd/sumoConfiguration.xsd">

    <input>
        <net-file value="/home/shreyasdk/capstone/vanet_final_v3/sumo_simulation/maps/simple_network.net.xml"/>
        <route-files value="/home/shreyasdk/capstone/vanet_final_v3/sumo_simulation/maps/routes.rou.xml"/>
    </input>

    <output>
        <summary-output value="./output_rule/summary.xml"/>
        <tripinfo-output value="./output_rule/tripinfo.xml"/>
    </output>

    <time>
        <begin value="0"/>
        <end value="3600"/>
        <step-length value="1"/>
    </time>

    <processing>
        <time-to-teleport value="300"/>
    </processing>

    <traci_server>
        <remote-port value="34443"/>
    </traci_server>

    <gui_only>
        <gui-settings-file value="/home/shreyasdk/capstone/vanet_final_v3/sumo_simulation/maps/gui-settings.cfg"/>
        <quit-on-end value="false"/>
        <start value="true"/>
        <tracker-interval value="1"/>
    </gui_only>

</configuration>
-->

<tripinfos xmlns:xsi="http://www.w3.org/2001/XMLSchema-instance" xsi:noNamespaceSchemaLocation="http://sumo.dlr.de/xsd/tripinfo_file.xsd">
    <tripinfo id="test_vehicle_4" depart="7.00" departLane="E7_0" departPos="5.10" departSpeed="0.00" departDelay="0.00" arrival="80.00" arrivalLane="E8_0" arrivalPos="496.00" arrivalSpeed="14.04" duration="73.00" routeLength="994.90" waitingTime="0.00" waitingCount="0" stopTime="0.00" timeLoss="5.97" rerouteNo="0" devices="tripinfo_test_vehicle_4" vType="passenger" speedFactor="1.08" vaporized=""/>
    <tripinfo id="test_vehicle_2" depart="3.00" departLane="E5_0" departPos="5.10" departSpeed="0.00" departDelay="0.00" arrival="86.00" arrivalLane="E6_0" arrivalPos="496.00" arrivalSpeed="12.84" duration="83.00" routeLength="994.90" waitingTime="0.00" waitingCount="0" stopTime="0.00" timeLoss="5.98" rerouteNo="0" devices="tripinfo_test_vehicle_2" vType="passenger" speedFactor="0.94" vaporized=""/>
    <tripinfo id="flow_ns_j3.1" depart="41.00" departLane="E7_1" departPos="5.10" departSpeed="16.09" departDelay="0.71" arrival="106.00" arrivalLane="E8_0" arrivalPos="496.00" arrivalSpeed="14.86" duration="65.00" routeLength="994.90" waitingTime="0.00" waitingCount="0" stopTime="0.00" timeLoss="2.80" rerouteNo="0" devices="tripinfo_flow_ns_j3.1" vType="passenger" speedFactor="1.16" vaporized=""/>
    <tripinfo id="flow_ns_j2.0" depart="25.00" departLane="E5_1" departPos="5.10" departSpeed="13.77" departDelay="0.00" arrival="108.00" arrivalLane="E6_0" arrivalPos="496.00" arrivalSpeed="13.28" duration="83.00" routeLength="994.90" waitingTime="2.00" waitingCount="1" stopTime="0.00" timeLoss="10.71" rerouteNo="0" devices="tripinfo_flow_ns_j2.0" vType="passenger" speedFactor="0.99" vaporized=""/>
    <tripinfo id="flow_ns_j3.0" depart="30.00" departLane="E7_1" departPos="5.10" departSpeed="12.87" departDelay="0.00" arrival="112.00" arrivalLane="E8_0" arrivalPos="496.00" arrivalSpeed="12.71" duration="82.00" routeLength="994.90" waitingTime="0.00" waitingCount="0" stopTime="0.00" timeLoss="4.26" rerouteNo="0" devices="tripinfo_flow_ns_j3.0" vType="passenger" speedFactor="0.93" vaporized=""/>
    <tripinfo id="flow_ns_j2.1" depart="36.00" departLane="E5_1" departPos="5.10" departSpeed="13.00" departDelay="0.71" arrival="116.00" arrivalLane="E6_0" arrivalPos="496.00" arrivalSpeed="12.10" duration="80.00" routeLength="994.90" waitingTime="0.00" waitingCount="0" stopTime="0.00" timeLoss="3.35" rerouteNo="0" devices="tripinfo_flow_ns_j2.1" vType="passenger" speedFactor="0.94" vaporized=""/>
    <tripinfo id="flow_ns_j3.3" depart="61.00" departLane="E7_1" departPos="5.10" departSpeed="15.72" departDelay="0.14" arrival="127.00" arrivalLane="E8_0" arrivalPos="496.00" arrivalSpeed="15.44" duration="66.00" routeLength="994.90" waitingTime="0.00" waitingCount="0" stopTime="0.00" timeLoss="2.67" rerouteNo="0" devices="tripinfo_flow_ns_j3.3" vType="passenger" speedFactor="1.13" vaporized=""/>
    <tripinfo id="flow_ns_j2.2" depart="46.00" departLane="E5_1" departPos="5.10" departSpeed="13.54" departDelay="0.43" arrival="131.00" arrivalLane="E6_0" arrivalPos="496.00" arrivalSpeed="13.16" duration="85.00" routeLength="994.90" waitingTime="2.00" waitingCount="1" stopTime="0.00" timeLoss="11.21" rerouteNo="0" devices="tripinfo_flow_ns_j2.2" vType="passenger" speedFactor="0.98" vaporized=""/>
    <tripinfo id="emergency_3" depart="60.00" departLane="E7_0" departPos="6.10" departSpeed="0.00" departDelay="0.00" arrival="133.00" arrivalLane="E8_0" arrivalPos="496.00" arrivalSpeed="14.18" duration="73.00" routeLength="993.90" waitingTime="0.00" waitingCount="0" stopTime="0.00" timeLoss="3.75" rerouteNo="0" devices="tripinfo_emergency_3" vType="emergency" speedFactor="1.05" vaporized=""/>
    <tripinfo id="flow_ns_j2.3" depart="56.00" departLane="E5_1" departPos="5.10" departSpeed="12.74" departDelay="0.14" arrival="139.00" arrivalLane="E6_0" arrivalPos="496.00" arrivalSpeed="11.83" duration="83.00" routeLength="994.90" waitingTime="0.00" waitingCount="0" stopTime="0.00" timeLoss="4.15" rerouteNo="0" devices="tripinfo_flow_ns_j2.3" vType="passenger" speedFactor="0.92" vaporized=""/>
    <tripinfo id="flow_ns_j2.5" depart="77.00" departLane="E5_1" departPos="5.10" departSpeed="16.28" departDelay="0.57" arrival="141.00" arrivalLane="E6_1" arrivalPos="496.00" arrivalSpeed="15.39" duration="64.00" routeLength="994.90" waitingTime="0.00" waitingCount="0" stopTime="0.00" timeLoss="2.46" rerouteNo="0" devices="tripinfo_flow_ns_j2.5" vType="passenger" speedFactor="1.17" vaporized=""/>
    <tripinfo id="flow_ns_j3.2" depart="51.00" departLane="E7_0" departPos="5.10" departSpeed="11.47" departDelay="0.43" arrival="143.00" arrivalLane="E8_0" arrivalPos="496.00" arrivalSpeed="10.70" duration="92.00" routeLength="994.90" waitingTime="0.00" waitingCount="0" stopTime="0.00" timeLoss="5.23" rerouteNo="0" devices="tripinfo_flow_ns_j3.2" vType="passenger" speedFactor="0.83" vaporized=""/>
    <tripinfo id="emergency_2" depart="55.00" departLane="E5_0" departPos="6.10" departSpeed="0.00" departDelay="0.00" arrival="145.00" arrivalLane="E6_0" arrivalPos="496.00" arrivalSpeed="11.10" duration="90.00" routeLength="993.90" waitingTime="0.00" waitingCount="0" stopTime="0.00" timeLoss="3.88" rerouteNo="0" devices="tripinfo_emergency_2" vType="emergency" speedFactor="0.83" vaporized=""/>
    <tripinfo id="test_vehicle_1" depart="1.00" departLane="E1_0" departPos="5.10" departSpeed="0.00" departDelay="0.00" arrival="146.00" arrivalLane="E3_0" arrivalPos="489.60" arrivalSpeed="13.45" duration="145.00" routeLength="1494.90" waitingTime="24.00" waitingCount="2" stopTime="0.00" timeLoss="43.20" rerouteNo="0" devices="tripinfo_test_vehicle_1" vType="passenger" speedFactor="1.06" vaporized=""/>
    <tripinfo id="test_vehicle_3" depart="5.00" departLane="E1_0" departPos="5.10" departSpeed="0.00" departDelay="0.00" arrival="148.00" arrivalLane="E3_1" arrivalPos="489.60" arrivalSpeed="12.98" duration="143.00" routeLength="1494.90" waitingTime="17.00" waitingCount="2" stopTime="0.00" timeLoss="36.23" rerouteNo="0" devices="tripinfo_test_vehicle_3" vType="passenger" speedFactor="1.01" vaporized=""/>
    <tripinfo id="flow_ns_j2.4" depart="67.00" departLane="E5_1" departPos="5.10" departSpeed="12.94" departDelay="0.86" arrival="148.00" arrivalLane="E6_0" arrivalPos="496.00" arrivalSpeed="12.61" duration="81.00" routeLength="994.90" waitingTime="0.00" waitingCount="0" stopTime="0.00" timeLoss="4.07" rerouteNo="0" devices="tripinfo_flow_ns_j2.4" vType="passenger" speedFactor="0.93" vaporized=""/>
    <tripinfo id="flow_ew_j2.0" depart="15.00" departLane="E1_1" departPos="5.10" departSpeed="14.26" departDelay="0.00" arrival="149.00" arrivalLane="E3_0" arrivalPos="489.60" arrivalSpeed="13.65" duration="134.00" routeLength="1494.90" waitingTime="12.00" waitingCount="1" stopTime="0.00" timeLoss="28.61" rerouteNo="0" devices="tripinfo_flow_ew_j2.0" vType="passenger" speedFactor="1.03" vaporized=""/>
    <tripinfo id="flow_ew_j2.1" depart="24.00" departLane="E1_1" departPos="5.10" departSpeed="15.60" departDelay="0.00" arrival="150.00" arrivalLane="E3_1" arrivalPos="489.60" arrivalSpeed="14.86" duration="126.00" routeLength="1494.90" waitingTime="10.00" waitingCount="1" stopTime="0.00" timeLoss="29.47" rerouteNo="0" devices="tripinfo_flow_ew_j2.1" vType="passenger" speedFactor="1.12" vaporized=""/>
    <tripinfo id="flow_ew_j2.2" depart="33.00" departLane="E1_1" departPos="5.10" departSpeed="8.61" departDelay="0.00" arrival="162.00" arrivalLane="E3_0" arrivalPos="489.60" arrivalSpeed="13.05" duration="129.00" routeLength="1494.90" waitingTime="1.00" waitingCount="1" stopTime="0.00" timeLoss="14.21" rerouteNo="0" devices="tripinfo_flow_ew_j2.2" vType="passenger" speedFactor="0.94" vaporized=""/>
    <tripinfo id="flow_ew_j2.3" depart="42.00" departLane="E1_1" departPos="5.10" departSpeed="14.14" departDelay="0.00" arrival="163.00" arrivalLane="E3_1" arrivalPos="489.60" arrivalSpeed="13.69" duration="121.00" routeLength="1494.90" waitingTime="0.00" waitingCount="0" stopTime="0.00" timeLoss="14.55" rerouteNo="0" devices="tripinfo_flow_ew_j2.3" vType="passenger" speedFactor="1.02" vaporized=""/>
    <tripinfo id="flow_ns_j2.6" depart="87.00" departLane="E5_1" departPos="5.10" departSpeed="15.31" departDelay="0.28" arrival="163.00" arrivalLane="E6_0" arrivalPos="496.00" arrivalSpeed="14.03" duration="76.00" routeLength="994.90" waitingTime="1.00" waitingCount="1" stopTime="0.00" timeLoss="10.46" rerouteNo="0" devices="tripinfo_flow_ns_j2.6" vType="passenger" speedFactor="1.10" vaporized=""/>
    <tripinfo id="flow_ns_j2.7" depart="98.00" departLane="E5_1" departPos="5.10" departSpeed="15.17" departDelay="1.00" arrival="167.00" arrivalLane="E6_0" arrivalPos="496.00" arrivalSpeed="14.35" duration="69.00" routeLength="994.90" waitingTime="0.00" waitingCount="0" stopTime="0.00" timeLoss="2.96" rerouteNo="0" devices="tripinfo_flow_ns_j2.7" vType="passenger" speedFactor="1.09" vaporized=""/>
    <tripinfo id="flow_ns_j3.4" depart="72.00" departLane="E7_1" departPos="5.10" departSpeed="13.96" departDelay="0.86" arrival="182.00" arrivalLane="E8_0" arrivalPos="496.00" arrivalSpeed="13.04" duration="110.00" routeLength="994.90" waitingTime="30.00" waitingCount="1" stopTime="0.00" timeLoss="37.98" rerouteNo="0" devices="tripinfo_flow_ns_j3.4" vType="passenger" speedFactor="1.01" vaporized=""/>
    <tripinfo id="flow_ns_j3.5" depart="82.00" departLane="E7_1" departPos="5.10" departSpeed="13.52" departDelay="0.57" arrival="183.00" arrivalLane="E8_1" arrivalPos="496.00" arrivalSpeed="12.58" duration="101.00" routeLength="994.90" waitingTime="18.00" waitingCount="1" stopTime="0.00" timeLoss="26.70" rerouteNo="0" devices="tripinfo_flow_ns_j3.5" vType="passenger" speedFactor="0.97" vaporized=""/>
    <tripinfo id="flow_ns_j3.6" depart="92.00" departLane="E7_1" departPos="5.10" departSpeed="14.31" departDelay="0.28" arrival="183.00" arrivalLane="E8_0" arrivalPos="496.00" arrivalSpeed="14.26" duration="91.00" routeLength="994.90" waitingTime="12.00" waitingCount="1" stopTime="0.00" timeLoss="21.44" rerouteNo="0" devices="tripinfo_flow_ns_j3.6" vType="passenger" speedFactor="1.03" vaporized=""/>
    <tripinfo id="flow_ns_j3.7" depart="103.00" departLane="E7_1" departPos="5.10" departSpeed="14.41" departDelay="1.00" arrival="184.00" arrivalLane="E8_1" arrivalPos="496.00" arrivalSpeed="14.00" duration="81.00" routeLength="994.90" waitingTime="0.00" waitingCount="0" stopTime="0.00" timeLoss="11.86" rerouteNo="0" devices="tripinfo_flow_ns_j3.7" vType="passenger" speedFactor="1.04" vaporized=""/>
    <tripinfo id="flow_ew_full.0" depart="20.00" departLane="E1_1" departPos="5.10" departSpeed="14.54" departDelay="0.00" arrival="186.00" arrivalLane="E4_0" arrivalPos="500.00" arrivalSpeed="14.31" duration="166.00" routeLength="1995.00" waitingTime="11.00" waitingCount="1" stopTime="0.00" timeLoss="28.75" rerouteNo="0" devices="tripinfo_flow_ew_full.0" vType="passenger" speedFactor="1.05" vaporized=""/>
    <tripinfo id="flow_ew_j2.6" depart="69.00" departLane="E1_1" departPos="5.10" departSpeed="14.34" departDelay="0.00" arrival="189.00" arrivalLane="E3_0" arrivalPos="489.60" arrivalSpeed="15.71" duration="120.00" routeLength="1494.90" waitingTime="6.00" waitingCount="1" stopTime="0.00" timeLoss="26.39" rerouteNo="0" devices="tripinfo_flow_ew_j2.6" vType="passenger" speedFactor="1.15" vaporized=""/>
    <tripinfo id="flow_ew_j2.5" depart="60.00" departLane="E1_0" departPos="5.10" departSpeed="13.18" departDelay="0.00" arrival="194.00" arrivalLane="E3_0" arrivalPos="489.60" arrivalSpeed="12.00" duration="134.00" routeLength="1494.90" waitingTime="8.00" waitingCount="1" stopTime="0.00" timeLoss="20.34" rerouteNo="0" devices="tripinfo_flow_ew_j2.5" vType="passenger" speedFactor="0.95" vaporized=""/>
    <tripinfo id="emergency_1" depart="50.00" departLane="E1_0" departPos="6.10" departSpeed="0.00" departDelay="0.00" arrival="195.00" arrivalLane="E4_1" arrivalPos="500.00" arrivalSpeed="14.01" duration="145.00" routeLength="1994.00" waitingTime="0.00" waitingCount="0" stopTime="0.00" timeLoss="5.41" rerouteNo="0" devices="tripinfo_emergency_1" vType="emergency" speedFactor="1.03" vaporized=""/>
    <tripinfo id="flow_ew_full.2" depart="44.00" departLane="E1_0" departPos="5.10" departSpeed="14.03" departDelay="0.00" arrival="196.00" arrivalLane="E4_0" arrivalPos="500.00" arrivalSpeed="13.00" duration="152.00" routeLength="1995.00" waitingTime="0.00" waitingCount="0" stopTime="0.00" timeLoss="9.56" rerouteNo="0" devices="tripinfo_flow_ew_full.2" vType="passenger" speedFactor="1.01" vaporized=""/>
    <tripinfo id="flow_ew_j2.8" depart="87.00" departLane="E1_1" departPos="5.10" departSpeed="16.39" departDelay="0.00" arrival="197.00" arrivalLane="E3_1" arrivalPos="489.60" arrivalSpeed="16.16" duration="110.00" routeLength="1494.90" waitingTime="0.00" waitingCount="0" stopTime="0.00" timeLoss="17.87" rerouteNo="0" devices="tripinfo_flow_ew_j2.8" vType="passenger" speedFactor="1.18" vaporized=""/>
    <tripinfo id="flow_ew_j2.4" depart="51.00" departLane="E1_1" departPos="5.10" departSpeed="12.36" departDelay="0.00" arrival="199.00" arrivalLane="E3_0" arrivalPos="489.60" arrivalSpeed="12.34" duration="148.00" routeLength="1494.90" waitingTime="14.00" waitingCount="1" stopTime="0.00" timeLoss="26.55" rerouteNo="0" devices="tripinfo_flow_ew_j2.4" vType="passenger" speedFactor="0.89" vaporized=""/>
    <tripinfo id="flow_ew_j2.7" depart="78.00" departLane="E1_1" departPos="5.10" departSpeed="13.82" departDelay="0.00" arrival="199.00" arrivalLane="E3_1" arrivalPos="489.60" arrivalSpeed="13.21" duration="121.00" routeLength="1494.90" waitingTime="0.00" waitingCount="0" stopTime="0.00" timeLoss="12.63" rerouteNo="0" devices="tripinfo_flow_ew_j2.7" vType="passenger" speedFactor="0.99" vaporized=""/>
    <tripinfo id="flow_ns_j2.8" depart="108.00" departLane="E5_1" departPos="5.10" departSpeed="13.85" departDelay="0.71" arrival="203.00" arrivalLane="E6_0" arrivalPos="496.00" arrivalSpeed="12.87" duration="95.00" routeLength="994.90" waitingTime="15.00" waitingCount="1" stopTime="0.00" timeLoss="22.88" rerouteNo="0" devices="tripinfo_flow_ns_j2.8" vType="passenger" speedFactor="1.00" vaporized=""/>
    <tripinfo id="emergency_5" depart="125.00" departLane="E5_0" departPos="6.10" departSpeed="0.00" departDelay="0.00" arrival="206.00" arrivalLane="E6_0" arrivalPos="496.00" arrivalSpeed="12.83" duration="81.00" routeLength="993.90" waitingTime="0.00" waitingCount="0" stopTime="0.00" timeLoss="4.21" rerouteNo="0" devices="tripinfo_emergency_5" vType="emergency" speedFactor="0.94" vaporized=""/>
    <tripinfo id="flow_ns_j2.9" depart="118.00" departLane="E5_1" departPos="5.10" departSpeed="11.87" departDelay="0.43" arrival="207.00" arrivalLane="E6_1" arrivalPos="496.00" arrivalSpeed="11.23" duration="89.00" routeLength="994.90" waitingTime="0.00" waitingCount="0" stopTime="0.00" timeLoss="4.83" rerouteNo="0" devices="tripinfo_flow_ns_j2.9" vType="passenger" speedFactor="0.85" vaporized=""/>
    <tripinfo id="flow_ns_j2.11" depart="139.00" departLane="E5_1" departPos="5.10" departSpeed="15.87" departDelay="0.85" arrival="208.00" arrivalLane="E6_0" arrivalPos="496.00" arrivalSpeed="15.48" duration="69.00" routeLength="994.90" waitingTime="0.00" waitingCount="0" stopTime="0.00" timeLoss="5.62" rerouteNo="0" devices="tripinfo_flow_ns_j2.11" vType="passenger" speedFactor="1.14" vaporized=""/>
    <tripinfo id="flow_ns_j3.9" depart="123.00" departLane="E7_1" departPos="5.10" departSpeed="14.12" departDelay="0.43" arrival="209.00" arrivalLane="E8_0" arrivalPos="496.00" arrivalSpeed="13.95" duration="86.00" routeLength="994.90" waitingTime="5.00" waitingCount="1" stopTime="0.00" timeLoss="14.71" rerouteNo="0" devices="tripinfo_flow_ns_j3.9" vType="passenger" speedFactor="1.02" vaporized=""/>
    <tripinfo id="flow_ns_j2.10" depart="128.00" departLane="E5_1" departPos="5.10" departSpeed="13.93" departDelay="0.14" arrival="209.00" arrivalLane="E6_1" arrivalPos="496.00" arrivalSpeed="13.21" duration="81.00" routeLength="994.90" waitingTime="0.00" waitingCount="0" stopTime="0.00" timeLoss="8.95" rerouteNo="0" devices="tripinfo_flow_ns_j2.10" vType="passenger" speedFactor="1.00" vaporized=""/>
    <tripinfo id="flow_ew_full.1" depart="32.00" departLane="E1_1" departPos="5.10" departSpeed="12.20" departDelay="0.00" arrival="210.00" arrivalLane="E4_0" arrivalPos="500.00" arrivalSpeed="11.58" duration="178.00" routeLength="1995.00" waitingTime="1.00" waitingCount="1" stopTime="0.00" timeLoss="14.35" rerouteNo="0" devices="tripinfo_flow_ew_full.1" vType="passenger" speedFactor="0.88" vaporized=""/>
    <tripinfo id="flow_ns_j3.8" depart="113.00" departLane="E7_1" departPos="5.10" departSpeed="12.51" departDelay="0.71" arrival="213.00" arrivalLane="E8_0" arrivalPos="496.00" arrivalSpeed="12.19" duration="100.00" routeLength="994.90" waitingTime="12.00" waitingCount="1" stopTime="0.00" timeLoss="20.39" rerouteNo="0" devices="tripinfo_flow_ns_j3.8" vType="passenger" speedFactor="0.90" vaporized=""/>
    <tripinfo id="flow_ns_j3.11" depart="144.00" departLane="E7_1" departPos="5.10" departSpeed="15.04" departDelay="0.85" arrival="214.00" arrivalLane="E8_1" arrivalPos="496.00" arrivalSpeed="13.76" duration="70.00" routeLength="994.90" waitingTime="0.00" waitingCount="0" stopTime="0.00" timeLoss="3.15" rerouteNo="0" devices="tripinfo_flow_ns_j3.11" vType="passenger" speedFactor="1.08" vaporized=""/>
    <tripinfo id="flow_ns_j3.10" depart="133.00" departLane="E7_1" departPos="5.10" departSpeed="12.49" departDelay="0.14" arrival="217.00" arrivalLane="E8_0" arrivalPos="496.00" arrivalSpeed="11.84" duration="84.00" routeLength="994.90" waitingTime="0.00" waitingCount="0" stopTime="0.00" timeLoss="4.11" rerouteNo="0" devices="tripinfo_flow_ns_j3.10" vType="passenger" speedFactor="0.90" vaporized=""/>
    <tripinfo id="flow_ew_j2.10" depart="105.00" departLane="E1_1" departPos="5.10" departSpeed="15.11" departDelay="0.00" arrival="218.00" arrivalLane="E3_0" arrivalPos="489.60" arrivalSpeed="14.41" duration="113.00" routeLength="1494.90" waitingTime="0.00" waitingCount="0" stopTime="0.00" timeLoss="13.57" rerouteNo="0" devices="tripinfo_flow_ew_j2.10" vType="passenger" speedFactor="1.09" vaporized=""/>
    <tripinfo id="flow_ew_full.4" depart="68.00" departLane="E1_1" departPos="5.10" departSpeed="16.37" departDelay="0.00" arrival="219.00" arrivalLane="E4_0" arrivalPos="500.00" arrivalSpeed="15.33" duration="151.00" routeLength="1995.00" waitingTime="6.00" waitingCount="1" stopTime="0.00" timeLoss="28.33" rerouteNo="0" devices="tripinfo_flow_ew_full.4" vType="passenger" speedFactor="1.18" vaporized=""/>
    <tripinfo id="flow_ew_j2.9" depart="96.00" departLane="E1_0" departPos="5.10" departSpeed="13.29" departDelay="0.00" arrival="222.00" arrivalLane="E3_0" arrivalPos="489.60" arrivalSpeed="12.77" duration="126.00" routeLength="1494.90" waitingTime="1.00" waitingCount="1" stopTime="0.00" timeLoss="12.78" rerouteNo="0" devices="tripinfo_flow_ew_j2.9" vType="passenger" speedFactor="0.96" vaporized=""/>
    <tripinfo id="flow_ew_j2.12" depart="123.00" departLane="E1_1" departPos="5.10" departSpeed="16.24" departDelay="0.00" arrival="223.00" arrivalLane="E3_1" arrivalPos="489.60" arrivalSpeed="15.18" duration="100.00" routeLength="1494.90" waitingTime="0.00" waitingCount="0" stopTime="0.00" timeLoss="7.82" rerouteNo="0" devices="tripinfo_flow_ew_j2.12" vType="passenger" speedFactor="1.17" vaporized=""/>
    <tripinfo id="flow_ew_full.5" depart="80.00" departLane="E1_1" departPos="5.10" departSpeed="14.16" departDelay="0.00" arrival="232.00" arrivalLane="E4_0" arrivalPos="500.00" arrivalSpeed="13.71" duration="152.00" routeLength="1995.00" waitingTime="0.00" waitingCount="0" stopTime="0.00" timeLoss="10.70" rerouteNo="0" devices="tripinfo_flow_ew_full.5" vType="passenger" speedFactor="1.02" vaporized=""/>
    <tripinfo id="flow_ns_j3.13" depart="164.00" departLane="E7_1" departPos="5.10" departSpeed="14.20" departDelay="0.28" arrival="238.00" arrivalLane="E8_0" arrivalPos="496.00" arrivalSpeed="13.31" duration="74.00" routeLength="994.90" waitingTime="0.00" waitingCount="0" stopTime="0.00" timeLoss="3.31" rerouteNo="0" devices="tripinfo_flow_ns_j3.13" vType="passenger" speedFactor="1.02" vaporized=""/>
    <tripinfo id="flow_ns_j3.12" depart="154.00" departLane="E7_1" departPos="5.10" departSpeed="12.26" departDelay="0.57" arrival="240.00" arrivalLane="E8_0" arrivalPos="496.00" arrivalSpeed="11.71" duration="86.00" routeLength="994.90" waitingTime="0.00" waitingCount="0" stopTime="0.00" timeLoss="4.50" rerouteNo="0" devices="tripinfo_flow_ns_j3.12" vType="passenger" speedFactor="0.88" vaporized=""/>
    <tripinfo id="flow_ns_j2.12" depart="149.00" departLane="E5_1" departPos="5.10" departSpeed="15.55" departDelay="0.57" arrival="242.00" arrivalLane="E6_0" arrivalPos="496.00" arrivalSpeed="14.64" duration="93.00" routeLength="994.90" waitingTime="20.00" waitingCount="1" stopTime="0.00" timeLoss="28.73" rerouteNo="0" devices="tripinfo_flow_ns_j2.12" vType="passenger" speedFactor="1.12" vaporized=""/>
    <tripinfo id="flow_ew_full.3" depart="56.00" departLane="E1_1" departPos="5.10" departSpeed="12.12" departDelay="0.00" arrival="247.00" arrivalLane="E4_0" arrivalPos="500.00" arrivalSpeed="11.64" duration="191.00" routeLength="1995.00" waitingTime="12.00" waitingCount="1" stopTime="0.00" timeLoss="25.95" rerouteNo="0" devices="tripinfo_flow_ew_full.3" vType="passenger" speedFactor="0.87" vaporized=""/>
    <tripinfo id="flow_ns_j2.14" depart="170.00" departLane="E5_1" departPos="5.10" departSpeed="13.51" departDelay="1.00" arrival="249.00" arrivalLane="E6_0" arrivalPos="496.00" arrivalSpeed="13.36" duration="79.00" routeLength="994.90" waitingTime="0.00" waitingCount="0" stopTime="0.00" timeLoss="4.94" rerouteNo="0" devices="tripinfo_flow_ns_j2.14" vType="passenger" speedFactor="0.97" vaporized=""/>
    <tripinfo id="flow_ns_j2.13" depart="159.00" departLane="E5_1" departPos="5.10" departSpeed="12.70" departDelay="0.28" arrival="250.00" arrivalLane="E6_0" arrivalPos="496.00" arrivalSpeed="12.45" duration="91.00" routeLength="994.90" waitingTime="2.00" waitingCount="1" stopTime="0.00" timeLoss="12.13" rerouteNo="0" devices="tripinfo_flow_ns_j2.13" vType="passenger" speedFactor="0.91" vaporized=""/>
    <tripinfo id="flow_ew_j2.11" depart="114.00" departLane="E1_0" departPos="5.10" departSpeed="12.18" departDelay="0.00" arrival="254.00" arrivalLane="E3_0" arrivalPos="489.60" arrivalSpeed="12.07" duration="140.00" routeLength="1494.90" waitingTime="5.00" waitingCount="1" stopTime="0.00" timeLoss="16.99" rerouteNo="0" devices="tripinfo_flow_ew_j2.11" vType="passenger" speedFactor="0.88" vaporized=""/>
    <tripinfo id="flow_ew_full.7" depart="104.00" departLane="E1_0" departPos="5.10" departSpeed="14.49" departDelay="0.00" arrival="258.00" arrivalLane="E4_0" arrivalPos="500.00" arrivalSpeed="13.98" duration="154.00" routeLength="1995.00" waitingTime="0.00" waitingCount="0" stopTime="0.00" timeLoss="15.96" rerouteNo="0" devices="tripinfo_flow_ew_full.7" vType="passenger" speedFactor="1.04" vaporized=""/>
    <tripinfo id="flow_ew_j2.13" depart="132.00" departLane="E1_1" departPos="5.10" departSpeed="13.83" departDelay="0.00" arrival="258.00" arrivalLane="E3_0" arrivalPos="489.60" arrivalSpeed="13.74" duration="126.00" routeLength="1494.90" waitingTime="5.00" waitingCount="1" stopTime="0.00" timeLoss="17.21" rerouteNo="0" devices="tripinfo_flow_ew_j2.13" vType="passenger" speedFactor="1.00" vaporized=""/>
    <tripinfo id="flow_ew_j2.14" depart="141.00" departLane="E1_0" departPos="5.10" departSpeed="13.47" departDelay="0.00" arrival="261.00" arrivalLane="E3_1" arrivalPos="489.60" arrivalSpeed="13.13" duration="120.00" routeLength="1494.90" waitingTime="0.00" waitingCount="0" stopTime="0.00" timeLoss="8.73" rerouteNo="0" devices="tripinfo_flow_ew_j2.14" vType="passenger" speedFactor="0.97" vaporized=""/>
    <tripinfo id="emergency_4" depart="120.00" departLane="E1_0" departPos="6.10" departSpeed="0.00" departDelay="0.00" arrival="262.00" arrivalLane="E3_0" arrivalPos="489.60" arrivalSpeed="11.89" duration="142.00" routeLength="1493.90" waitingTime="12.00" waitingCount="1" stopTime="0.00" timeLoss="20.37" rerouteNo="0" devices="tripinfo_emergency_4" vType="emergency" speedFactor="0.89" vaporized=""/>
    <tripinfo id="flow_ew_j2.15" depart="150.00" departLane="E1_1" departPos="5.10" departSpeed="14.11" departDelay="0.00" arrival="263.00" arrivalLane="E3_1" arrivalPos="489.60" arrivalSpeed="13.98" duration="113.00" routeLength="1494.90" waitingTime="0.00" waitingCount="0" stopTime="0.00" timeLoss="6.49" rerouteNo="0" devices="tripinfo_flow_ew_j2.15" vType="passenger" speedFactor="1.02" vaporized=""/>
    <tripinfo id="flow_ns_j2.16" depart="190.00" departLane="E5_1" departPos="5.10" departSpeed="15.10" departDelay="0.42" arrival="265.00" arrivalLane="E6_0" arrivalPos="496.00" arrivalSpeed="14.41" duration="75.00" routeLength="994.90" waitingTime="0.00" waitingCount="0" stopTime="0.00" timeLoss="8.55" rerouteNo="0" devices="tripinfo_flow_ns_j2.16" vType="passenger" speedFactor="1.09" vaporized=""/>
    <tripinfo id="flow_ew_full.6" depart="92.00" departLane="E1_0" departPos="5.10" departSpeed="12.51" departDelay="0.00" arrival="268.00" arrivalLane="E4_0" arrivalPos="500.00" arrivalSpeed="11.96" duration="176.00" routeLength="1995.00" waitingTime="1.00" waitingCount="1" stopTime="0.00" timeLoss="16.03" rerouteNo="0" devices="tripinfo_flow_ew_full.6" vType="passenger" speedFactor="0.90" vaporized=""/>
    <tripinfo id="flow_ns_j2.15" depart="180.00" departLane="E5_1" departPos="5.10" departSpeed="13.68" departDelay="0.71" arrival="268.00" arrivalLane="E6_0" arrivalPos="496.00" arrivalSpeed="13.31" duration="88.00" routeLength="994.90" waitingTime="5.00" waitingCount="1" stopTime="0.00" timeLoss="14.97" rerouteNo="0" devices="tripinfo_flow_ns_j2.15" vType="passenger" speedFactor="0.98" vaporized=""/>
    <tripinfo id="emergency_7" depart="200.00" departLane="E5_0" departPos="6.10" departSpeed="0.00" departDelay="0.00" arrival="270.00" arrivalLane="E6_0" arrivalPos="496.00" arrivalSpeed="14.85" duration="70.00" routeLength="993.90" waitingTime="0.00" waitingCount="0" stopTime="0.00" timeLoss="3.64" rerouteNo="0" devices="tripinfo_emergency_7" vType="emergency" speedFactor="1.09" vaporized=""/>
    <tripinfo id="flow_ns_j3.15" depart="185.00" departLane="E7_1" departPos="5.10" departSpeed="14.34" departDelay="0.71" arrival="278.00" arrivalLane="E8_0" arrivalPos="496.00" arrivalSpeed="13.93" duration="93.00" routeLength="994.90" waitingTime="14.00" waitingCount="1" stopTime="0.00" timeLoss="22.86" rerouteNo="0" devices="tripinfo_flow_ns_j3.15" vType="passenger" speedFactor="1.03" vaporized=""/>
    <tripinfo id="flow_ns_j2.17" depart="200.00" departLane="E5_1" departPos="5.10" departSpeed="13.43" departDelay="0.14" arrival="279.00" arrivalLane="E6_0" arrivalPos="496.00" arrivalSpeed="12.54" duration="79.00" routeLength="994.90" waitingTime="0.00" waitingCount="0" stopTime="0.00" timeLoss="4.32" rerouteNo="0" devices="tripinfo_flow_ns_j2.17" vType="passenger" speedFactor="0.97" vaporized=""/>
    <tripinfo id="flow_ns_j3.14" depart="175.00" departLane="E7_1" departPos="5.10" departSpeed="13.06" departDelay="1.00" arrival="281.00" arrivalLane="E8_0" arrivalPos="496.00" arrivalSpeed="11.97" duration="106.00" routeLength="994.90" waitingTime="20.00" waitingCount="1" stopTime="0.00" timeLoss="29.24" rerouteNo="0" devices="tripinfo_flow_ns_j3.14" vType="passenger" speedFactor="0.94" vaporized=""/>
    <tripinfo id="flow_ns_j3.16" depart="195.00" departLane="E7_1" departPos="5.10" departSpeed="13.86" departDelay="0.42" arrival="283.00" arrivalLane="E8_0" arrivalPos="496.00" arrivalSpeed="13.24" duration="88.00" routeLength="994.90" waitingTime="2.00" waitingCount="1" stopTime="0.00" timeLoss="15.37" rerouteNo="0" devices="tripinfo_flow_ns_j3.16" vType="passenger" speedFactor="1.00" vaporized=""/>
    <tripinfo id="flow_ns_j3.17" depart="205.00" departLane="E7_1" departPos="5.10" departSpeed="13.56" departDelay="0.14" arrival="283.00" arrivalLane="E8_1" arrivalPos="496.00" arrivalSpeed="13.26" duration="78.00" routeLength="994.90" waitingTime="0.00" waitingCount="0" stopTime="0.00" timeLoss="4.06" rerouteNo="0" devices="tripinfo_flow_ns_j3.17" vType="passenger" speedFactor="0.98" vaporized=""/>