<?xml version="1.0" encoding="UTF-8"?>

<!-- generated on 2025-10-29 22:00:30 by Eclipse SUMO GUI Version 1.22.0
<sumoConfiguration xmlns:xsi="http://www.w3.org/2001/XMLSchema-instance" xsi:noNamespaceSchemaLocation="http://sumo.dlr.de/xsd/sumoConfiguration.xsd">

    <input>
        <net-file value="/Users/apple/Desktop/vanet_29_oct/vanet_final_v3/sumo_simulation/maps/simple_network.net.xml"/>
        <route-files value="/Users/apple/Desktop/vanet_29_oct/vanet_final_v3/sumo_simulation/maps/routes.rou.xml"/>
    </input>

    <output>
        <summary-output value="./output_rule/summary.xml"/>
        <tripinfo-output value="./output_rule/tripinfo.xml"/>
    </output>

    <time>
        <begin value="0"/>
        <end value="3600"/>
        <step-length value="1"/>
    </time>

    <processing>
        <time-to-teleport value="300"/>
    </processing>

    <traci_server>
        <remote-port value="52385"/>
    </traci_server>

    <gui_only>
        <gui-settings-file value="/Users/apple/Desktop/vanet_29_oct/vanet_final_v3/sumo_simulation/maps/gui-settings.cfg"/>
        <quit-on-end value="false"/>
        <start value="true"/>
    </gui_only>

</sumoConfiguration>
-->

<tripinfos xmlns:xsi="http://www.w3.org/2001/XMLSchema-instance" xsi:noNamespaceSchemaLocation="http://sumo.dlr.de/xsd/tripinfo_file.xsd">
    <tripinfo id="test_vehicle_4" depart="7.00" departLane="E7_0" departPos="5.10" departSpeed="0.00" departDelay="0.00" arrival="80.00" arrivalLane="E8_0" arrivalPos="496.00" arrivalSpeed="14.24" duration="73.00" routeLength="994.90" waitingTime="0.00" waitingCount="0" stopTime="0.00" timeLoss="6.04" rerouteNo="0" devices="tripinfo_test_vehicle_4" vType="passenger" speedFactor="1.08" vaporized=""/>
    <tripinfo id="test_vehicle_2" depart="3.00" departLane="E5_0" departPos="5.10" departSpeed="0.00" departDelay="0.00" arrival="86.00" arrivalLane="E6_0" arrivalPos="496.00" arrivalSpeed="12.83" duration="83.00" routeLength="994.90" waitingTime="0.00" waitingCount="0" stopTime="0.00" timeLoss="6.14" rerouteNo="0" devices="tripinfo_test_vehicle_2" vType="passenger" speedFactor="0.94" vaporized=""/>
    <tripinfo id="flow_ns_j2.1" depart="36.00" departLane="E5_1" departPos="5.10" departSpeed="14.54" departDelay="0.71" arrival="150.00" arrivalLane="E6_0" arrivalPos="496.00" arrivalSpeed="14.07" duration="114.00" routeLength="994.90" waitingTime="37.00" waitingCount="1" stopTime="0.00" timeLoss="45.59" rerouteNo="0" devices="tripinfo_flow_ns_j2.1" vType="passenger" speedFactor="1.05" vaporized=""/>
    <tripinfo id="flow_ns_j2.3" depart="56.00" departLane="E5_1" departPos="5.10" departSpeed="14.03" departDelay="0.14" arrival="153.00" arrivalLane="E6_1" arrivalPos="496.00" arrivalSpeed="13.28" duration="97.00" routeLength="994.90" waitingTime="17.00" waitingCount="1" stopTime="0.00" timeLoss="26.03" rerouteNo="0" devices="tripinfo_flow_ns_j2.3" vType="passenger" speedFactor="1.01" vaporized=""/>
    <tripinfo id="flow_ns_j2.0" depart="25.00" departLane="E5_1" departPos="5.10" departSpeed="13.03" departDelay="0.00" arrival="154.00" arrivalLane="E6_0" arrivalPos="496.00" arrivalSpeed="12.46" duration="129.00" routeLength="994.90" waitingTime="44.00" waitingCount="1" stopTime="0.00" timeLoss="52.49" rerouteNo="0" devices="tripinfo_flow_ns_j2.0" vType="passenger" speedFactor="0.94" vaporized=""/>
    <tripinfo id="flow_ns_j2.5" depart="77.00" departLane="E5_1" departPos="5.10" departSpeed="15.72" departDelay="0.57" arrival="155.00" arrivalLane="E6_1" arrivalPos="496.00" arrivalSpeed="14.64" duration="78.00" routeLength="994.90" waitingTime="1.00" waitingCount="1" stopTime="0.00" timeLoss="14.27" rerouteNo="0" devices="tripinfo_flow_ns_j2.5" vType="passenger" speedFactor="1.13" vaporized=""/>
    <tripinfo id="flow_ns_j2.6" depart="87.00" departLane="E5_0" departPos="5.10" departSpeed="16.28" departDelay="0.28" arrival="157.00" arrivalLane="E6_1" arrivalPos="496.00" arrivalSpeed="15.27" duration="70.00" routeLength="994.90" waitingTime="0.00" waitingCount="0" stopTime="0.00" timeLoss="8.10" rerouteNo="0" devices="tripinfo_flow_ns_j2.6" vType="passenger" speedFactor="1.17" vaporized=""/>
    <tripinfo id="flow_ns_j2.2" depart="46.00" departLane="E5_1" departPos="5.10" departSpeed="12.20" departDelay="0.43" arrival="159.00" arrivalLane="E6_0" arrivalPos="496.00" arrivalSpeed="11.74" duration="113.00" routeLength="994.90" waitingTime="21.00" waitingCount="1" stopTime="0.00" timeLoss="31.30" rerouteNo="0" devices="tripinfo_flow_ns_j2.2" vType="passenger" speedFactor="0.88" vaporized=""/>
    <tripinfo id="flow_ns_j2.7" depart="98.00" departLane="E5_1" departPos="5.10" departSpeed="16.39" departDelay="1.00" arrival="162.00" arrivalLane="E6_1" arrivalPos="496.00" arrivalSpeed="16.38" duration="64.00" routeLength="994.90" waitingTime="0.00" waitingCount="0" stopTime="0.00" timeLoss="2.56" rerouteNo="0" devices="tripinfo_flow_ns_j2.7" vType="passenger" speedFactor="1.18" vaporized=""/>
    <tripinfo id="flow_ns_j2.4" depart="67.00" departLane="E5_0" departPos="5.10" departSpeed="11.47" departDelay="0.86" arrival="164.00" arrivalLane="E6_0" arrivalPos="496.00" arrivalSpeed="10.93" duration="97.00" routeLength="994.90" waitingTime="0.00" waitingCount="0" stopTime="0.00" timeLoss="9.56" rerouteNo="0" devices="tripinfo_flow_ns_j2.4" vType="passenger" speedFactor="0.83" vaporized=""/>
    <tripinfo id="flow_ns_j2.8" depart="108.00" departLane="E5_0" departPos="5.10" departSpeed="13.29" departDelay="0.71" arrival="187.00" arrivalLane="E6_0" arrivalPos="496.00" arrivalSpeed="12.79" duration="79.00" routeLength="994.90" waitingTime="0.00" waitingCount="0" stopTime="0.00" timeLoss="3.97" rerouteNo="0" devices="tripinfo_flow_ns_j2.8" vType="passenger" speedFactor="0.96" vaporized=""/>
    <tripinfo id="flow_ns_j2.9" depart="118.00" departLane="E5_1" departPos="5.10" departSpeed="15.11" departDelay="0.43" arrival="187.00" arrivalLane="E6_1" arrivalPos="496.00" arrivalSpeed="14.56" duration="69.00" routeLength="994.90" waitingTime="0.00" waitingCount="0" stopTime="0.00" timeLoss="3.08" rerouteNo="0" devices="tripinfo_flow_ns_j2.9" vType="passenger" speedFactor="1.09" vaporized=""/>
    <tripinfo id="flow_ns_j2.11" depart="139.00" departLane="E5_1" departPos="5.10" departSpeed="14.12" departDelay="0.85" arrival="214.00" arrivalLane="E6_0" arrivalPos="496.00" arrivalSpeed="13.31" duration="75.00" routeLength="994.90" waitingTime="0.00" waitingCount="0" stopTime="0.00" timeLoss="3.68" rerouteNo="0" devices="tripinfo_flow_ns_j2.11" vType="passenger" speedFactor="1.02" vaporized=""/>
    <tripinfo id="flow_ns_j2.10" depart="128.00" departLane="E5_0" departPos="5.10" departSpeed="11.81" departDelay="0.14" arrival="218.00" arrivalLane="E6_0" arrivalPos="496.00" arrivalSpeed="11.64" duration="90.00" routeLength="994.90" waitingTime="0.00" waitingCount="0" stopTime="0.00" timeLoss="4.88" rerouteNo="0" devices="tripinfo_flow_ns_j2.10" vType="passenger" speedFactor="0.85" vaporized=""/>
    <tripinfo id="flow_ns_j2.13" depart="159.00" departLane="E5_1" departPos="5.10" departSpeed="15.55" departDelay="0.28" arrival="226.00" arrivalLane="E6_0" arrivalPos="496.00" arrivalSpeed="14.75" duration="67.00" routeLength="994.90" waitingTime="0.00" waitingCount="0" stopTime="0.00" timeLoss="2.91" rerouteNo="0" devices="tripinfo_flow_ns_j2.13" vType="passenger" speedFactor="1.12" vaporized=""/>
    <tripinfo id="flow_ns_j2.12" depart="149.00" departLane="E5_0" departPos="5.10" departSpeed="12.49" departDelay="0.57" arrival="234.00" arrivalLane="E6_0" arrivalPos="496.00" arrivalSpeed="11.96" duration="85.00" routeLength="994.90" waitingTime="0.00" waitingCount="0" stopTime="0.00" timeLoss="4.81" rerouteNo="0" devices="tripinfo_flow_ns_j2.12" vType="passenger" speedFactor="0.90" vaporized=""/>
    <tripinfo id="flow_ns_j2.15" depart="180.00" departLane="E5_1" departPos="5.10" departSpeed="14.20" departDelay="0.71" arrival="254.00" arrivalLane="E6_0" arrivalPos="496.00" arrivalSpeed="13.65" duration="74.00" routeLength="994.90" waitingTime="0.00" waitingCount="0" stopTime="0.00" timeLoss="3.28" rerouteNo="0" devices="tripinfo_flow_ns_j2.15" vType="passenger" speedFactor="1.02" vaporized=""/>
    <tripinfo id="flow_ns_j2.14" depart="170.00" departLane="E5_0" departPos="5.10" departSpeed="12.26" departDelay="1.00" arrival="257.00" arrivalLane="E6_0" arrivalPos="496.00" arrivalSpeed="11.37" duration="87.00" routeLength="994.90" waitingTime="0.00" waitingCount="0" stopTime="0.00" timeLoss="5.05" rerouteNo="0" devices="tripinfo_flow_ns_j2.14" vType="passenger" speedFactor="0.88" vaporized=""/>
    <tripinfo id="flow_ns_j2.16" depart="190.00" departLane="E5_0" departPos="5.10" departSpeed="14.66" departDelay="0.42" arrival="261.00" arrivalLane="E6_0" arrivalPos="496.00" arrivalSpeed="14.17" duration="71.00" routeLength="994.90" waitingTime="0.00" waitingCount="0" stopTime="0.00" timeLoss="3.12" rerouteNo="0" devices="tripinfo_flow_ns_j2.16" vType="passenger" speedFactor="1.06" vaporized=""/>
    <tripinfo id="flow_ns_j2.17" depart="200.00" departLane="E5_1" departPos="5.10" departSpeed="13.64" departDelay="0.14" arrival="277.00" arrivalLane="E6_0" arrivalPos="496.00" arrivalSpeed="13.01" duration="77.00" routeLength="994.90" waitingTime="0.00" waitingCount="0" stopTime="0.00" timeLoss="3.71" rerouteNo="0" devices="tripinfo_flow_ns_j2.17" vType="passenger" speedFactor="0.98" vaporized=""/>
    <tripinfo id="flow_ns_j2.18" depart="211.00" departLane="E5_1" departPos="5.10" departSpeed="14.37" departDelay="0.85" arrival="284.00" arrivalLane="E6_0" arrivalPos="496.00" arrivalSpeed="14.21" duration="73.00" routeLength="994.90" waitingTime="0.00" waitingCount="0" stopTime="0.00" timeLoss="3.46" rerouteNo="0" devices="tripinfo_flow_ns_j2.18" vType="passenger" speedFactor="1.03" vaporized=""/>
    <tripinfo id="flow_ns_j2.19" depart="221.00" departLane="E5_1" departPos="5.10" departSpeed="15.94" departDelay="0.57" arrival="286.00" arrivalLane="E6_0" arrivalPos="496.00" arrivalSpeed="15.03" duration="65.00" routeLength="994.90" waitingTime="0.00" waitingCount="0" stopTime="0.00" timeLoss="2.55" rerouteNo="0" devices="tripinfo_flow_ns_j2.19" vType="passenger" speedFactor="1.15" vaporized=""/>
    <tripinfo id="flow_ns_j2.20" depart="231.00" departLane="E5_0" departPos="5.10" departSpeed="14.20" departDelay="0.28" arrival="305.00" arrivalLane="E6_0" arrivalPos="496.00" arrivalSpeed="12.97" duration="74.00" routeLength="994.90" waitingTime="0.00" waitingCount="0" stopTime="0.00" timeLoss="3.40" rerouteNo="0" devices="tripinfo_flow_ns_j2.20" vType="passenger" speedFactor="1.02" vaporized=""/>
    <tripinfo id="flow_ns_j2.21" depart="242.00" departLane="E5_1" departPos="5.10" departSpeed="12.80" departDelay="0.99" arrival="375.00" arrivalLane="E6_0" arrivalPos="496.00" arrivalSpeed="12.44" duration="133.00" routeLength="994.90" waitingTime="46.00" waitingCount="1" stopTime="0.00" timeLoss="54.90" rerouteNo="0" devices="tripinfo_flow_ns_j2.21" vType="passenger" speedFactor="0.92" vaporized=""/>
    <tripinfo id="flow_ns_j2.22" depart="252.00" departLane="E5_1" departPos="5.10" departSpeed="12.59" departDelay="0.71" arrival="376.00" arrivalLane="E6_1" arrivalPos="496.00" arrivalSpeed="11.90" duration="124.00" routeLength="994.90" waitingTime="34.00" waitingCount="1" stopTime="0.00" timeLoss="44.47" rerouteNo="0" devices="tripinfo_flow_ns_j2.22" vType="passenger" speedFactor="0.91" vaporized=""/>
    <tripinfo id="flow_ns_j2.23" depart="262.00" departLane="E5_1" departPos="5.10" departSpeed="13.29" departDelay="0.42" arrival="377.00" arrivalLane="E6_0" arrivalPos="496.00" arrivalSpeed="12.64" duration="115.00" routeLength="994.90" waitingTime="28.00" waitingCount="1" stopTime="0.00" timeLoss="39.58" rerouteNo="0" devices="tripinfo_flow_ns_j2.23" vType="passenger" speedFactor="0.96" vaporized=""/>
    <tripinfo id="flow_ns_j2.24" depart="272.00" departLane="E5_1" departPos="5.10" departSpeed="14.90" departDelay="0.14" arrival="377.00" arrivalLane="E6_1" arrivalPos="496.00" arrivalSpeed="14.65" duration="105.00" routeLength="994.90" waitingTime="23.00" waitingCount="1" stopTime="0.00" timeLoss="38.23" rerouteNo="0" devices="tripinfo_flow_ns_j2.24" vType="passenger" speedFactor="1.07" vaporized=""/>
    <tripinfo id="flow_ns_j2.25" depart="283.00" departLane="E5_0" departPos="5.10" departSpeed="14.79" departDelay="0.85" arrival="379.00" arrivalLane="E6_0" arrivalPos="496.00" arrivalSpeed="14.73" duration="96.00" routeLength="994.90" waitingTime="13.00" waitingCount="1" stopTime="0.00" timeLoss="27.80" rerouteNo="0" devices="tripinfo_flow_ns_j2.25" vType="passenger" speedFactor="1.06" vaporized=""/>
    <tripinfo id="flow_ns_j2.26" depart="293.00" departLane="E5_1" departPos="5.10" departSpeed="15.26" departDelay="0.56" arrival="379.00" arrivalLane="E6_1" arrivalPos="496.00" arrivalSpeed="15.00" duration="86.00" routeLength="994.90" waitingTime="4.00" waitingCount="1" stopTime="0.00" timeLoss="20.42" rerouteNo="0" devices="tripinfo_flow_ns_j2.26" vType="passenger" speedFactor="1.10" vaporized=""/>
    <tripinfo id="flow_ns_j2.27" depart="303.00" departLane="E5_1" departPos="5.10" departSpeed="13.95" departDelay="0.28" arrival="380.00" arrivalLane="E6_0" arrivalPos="496.00" arrivalSpeed="13.35" duration="77.00" routeLength="994.90" waitingTime="0.00" waitingCount="0" stopTime="0.00" timeLoss="5.57" rerouteNo="0" devices="tripinfo_flow_ns_j2.27" vType="passenger" speedFactor="1.00" vaporized=""/>
    <tripinfo id="flow_ns_j2.28" depart="314.00" departLane="E5_1" departPos="5.10" departSpeed="15.32" departDelay="0.99" arrival="382.00" arrivalLane="E6_0" arrivalPos="496.00" arrivalSpeed="14.74" duration="68.00" routeLength="994.90" waitingTime="0.00" waitingCount="0" stopTime="0.00" timeLoss="2.83" rerouteNo="0" devices="tripinfo_flow_ns_j2.28" vType="passenger" speedFactor="1.10" vaporized=""/>
    <tripinfo id="flow_ns_j2.29" depart="324.00" departLane="E5_0" departPos="5.10" departSpeed="16.01" departDelay="0.71" arrival="389.00" arrivalLane="E6_0" arrivalPos="496.00" arrivalSpeed="14.85" duration="65.00" routeLength="994.90" waitingTime="0.00" waitingCount="0" stopTime="0.00" timeLoss="2.67" rerouteNo="0" devices="tripinfo_flow_ns_j2.29" vType="passenger" speedFactor="1.15" vaporized=""/>
    <tripinfo id="flow_ns_j2.30" depart="334.00" departLane="E5_1" departPos="5.10" departSpeed="14.01" departDelay="0.42" arrival="409.00" arrivalLane="E6_0" arrivalPos="496.00" arrivalSpeed="13.67" duration="75.00" routeLength="994.90" waitingTime="0.00" waitingCount="0" stopTime="0.00" timeLoss="3.59" rerouteNo="0" devices="tripinfo_flow_ns_j2.30" vType="passenger" speedFactor="1.01" vaporized=""/>
    <tripinfo id="flow_ns_j3.1" depart="41.00" departLane="E7_1" departPos="5.10" departSpeed="15.60" departDelay="0.71" arrival="411.00" arrivalLane="E8_0" arrivalPos="496.00" arrivalSpeed="15.49" duration="370.00" routeLength="980.50" waitingTime="301.00" waitingCount="1" stopTime="0.00" timeLoss="307.25" rerouteNo="0" devices="tripinfo_flow_ns_j3.1" vType="passenger" speedFactor="1.12" vaporized=""/>
    <tripinfo id="flow_ns_j2.31" depart="344.00" departLane="E5_1" departPos="5.10" departSpeed="14.41" departDelay="0.13" arrival="417.00" arrivalLane="E6_0" arrivalPos="496.00" arrivalSpeed="13.76" duration="73.00" routeLength="994.90" waitingTime="0.00" waitingCount="0" stopTime="0.00" timeLoss="3.11" rerouteNo="0" devices="tripinfo_flow_ns_j2.31" vType="passenger" speedFactor="1.04" vaporized=""/>
    <tripinfo id="flow_ns_j3.0" depart="30.00" departLane="E7_1" departPos="5.10" departSpeed="11.90" departDelay="0.00" arrival="420.00" arrivalLane="E8_0" arrivalPos="496.00" arrivalSpeed="11.18" duration="390.00" routeLength="980.50" waitingTime="301.00" waitingCount="1" stopTime="0.00" timeLoss="307.72" rerouteNo="0" devices="tripinfo_flow_ns_j3.0" vType="passenger" speedFactor="0.86" vaporized=""/>
    <tripinfo id="flow_ns_j2.32" depart="355.00" departLane="E5_1" departPos="5.10" departSpeed="15.55" departDelay="0.85" arrival="423.00" arrivalLane="E6_0" arrivalPos="496.00" arrivalSpeed="14.50" duration="68.00" routeLength="994.90" waitingTime="0.00" waitingCount="0" stopTime="0.00" timeLoss="3.10" rerouteNo="0" devices="tripinfo_flow_ns_j2.32" vType="passenger" speedFactor="1.12" vaporized=""/>
</tripinfos>
