<?xml version="1.0" encoding="UTF-8"?>

<!-- generated on 2025-10-31 21:49:08 by Eclipse SUMO GUI Version 1.22.0
<sumoConfiguration xmlns:xsi="http://www.w3.org/2001/XMLSchema-instance" xsi:noNamespaceSchemaLocation="http://sumo.dlr.de/xsd/sumoConfiguration.xsd">

    <input>
        <net-file value="/Users/apple/Desktop/vanet_29_oct/vanet_final_v3/sumo_simulation/maps/simple_network.net.xml"/>
        <route-files value="/Users/apple/Desktop/vanet_29_oct/vanet_final_v3/sumo_simulation/maps/routes.rou.xml"/>
    </input>

    <output>
        <summary-output value="./output_rule/summary.xml"/>
        <tripinfo-output value="./output_rule/tripinfo.xml"/>
    </output>

    <time>
        <begin value="0"/>
        <end value="3600"/>
        <step-length value="1"/>
    </time>

    <processing>
        <time-to-teleport value="300"/>
    </processing>

    <traci_server>
        <remote-port value="55049"/>
    </traci_server>

    <gui_only>
        <gui-settings-file value="/Users/apple/Desktop/vanet_29_oct/vanet_final_v3/sumo_simulation/maps/gui-settings.cfg"/>
        <quit-on-end value="false"/>
        <start value="true"/>
    </gui_only>

</sumoConfiguration>
-->

<tripinfos xmlns:xsi="http://www.w3.org/2001/XMLSchema-instance" xsi:noNamespaceSchemaLocation="http://sumo.dlr.de/xsd/tripinfo_file.xsd">
    <tripinfo id="test_vehicle_4" depart="7.00" departLane="E7_0" departPos="5.10" departSpeed="0.00" departDelay="0.00" arrival="80.00" arrivalLane="E8_0" arrivalPos="496.00" arrivalSpeed="14.89" duration="73.00" routeLength="994.90" waitingTime="0.00" waitingCount="0" stopTime="0.00" timeLoss="6.13" rerouteNo="0" devices="tripinfo_test_vehicle_4" vType="passenger" speedFactor="1.08" vaporized=""/>
    <tripinfo id="test_vehicle_2" depart="3.00" departLane="E5_0" departPos="5.10" departSpeed="0.00" departDelay="0.00" arrival="86.00" arrivalLane="E6_0" arrivalPos="496.00" arrivalSpeed="12.06" duration="83.00" routeLength="994.90" waitingTime="0.00" waitingCount="0" stopTime="0.00" timeLoss="6.10" rerouteNo="0" devices="tripinfo_test_vehicle_2" vType="passenger" speedFactor="0.94" vaporized=""/>
    <tripinfo id="flow_ns_j2.0" depart="25.00" departLane="E5_1" departPos="5.10" departSpeed="13.03" departDelay="0.00" arrival="106.00" arrivalLane="E6_0" arrivalPos="496.00" arrivalSpeed="12.55" duration="81.00" routeLength="994.90" waitingTime="0.00" waitingCount="0" stopTime="0.00" timeLoss="3.71" rerouteNo="0" devices="tripinfo_flow_ns_j2.0" vType="passenger" speedFactor="0.94" vaporized=""/>
    <tripinfo id="flow_ns_j2.1" depart="36.00" departLane="E5_1" departPos="5.10" departSpeed="14.54" departDelay="0.71" arrival="108.00" arrivalLane="E6_0" arrivalPos="496.00" arrivalSpeed="14.52" duration="72.00" routeLength="994.90" waitingTime="0.00" waitingCount="0" stopTime="0.00" timeLoss="2.88" rerouteNo="0" devices="tripinfo_flow_ns_j2.1" vType="passenger" speedFactor="1.05" vaporized=""/>
    <tripinfo id="flow_ns_j3.1" depart="41.00" departLane="E7_1" departPos="5.10" departSpeed="15.60" departDelay="0.71" arrival="108.00" arrivalLane="E8_0" arrivalPos="496.00" arrivalSpeed="14.79" duration="67.00" routeLength="994.90" waitingTime="0.00" waitingCount="0" stopTime="0.00" timeLoss="2.91" rerouteNo="0" devices="tripinfo_flow_ns_j3.1" vType="passenger" speedFactor="1.12" vaporized=""/>
    <tripinfo id="flow_ns_j3.0" depart="30.00" departLane="E7_1" departPos="5.10" departSpeed="11.90" departDelay="0.00" arrival="119.00" arrivalLane="E8_0" arrivalPos="496.00" arrivalSpeed="11.07" duration="89.00" routeLength="994.90" waitingTime="0.00" waitingCount="0" stopTime="0.00" timeLoss="4.91" rerouteNo="0" devices="tripinfo_flow_ns_j3.0" vType="passenger" speedFactor="0.86" vaporized=""/>
    <tripinfo id="flow_ns_j3.2" depart="51.00" departLane="E7_0" departPos="5.10" departSpeed="16.09" departDelay="0.43" arrival="124.00" arrivalLane="E8_0" arrivalPos="496.00" arrivalSpeed="15.92" duration="73.00" routeLength="994.90" waitingTime="3.00" waitingCount="1" stopTime="0.00" timeLoss="10.41" rerouteNo="0" devices="tripinfo_flow_ns_j3.2" vType="passenger" speedFactor="1.16" vaporized=""/>
    <tripinfo id="flow_ns_j2.3" depart="56.00" departLane="E5_1" departPos="5.10" departSpeed="14.03" departDelay="0.14" arrival="131.00" arrivalLane="E6_1" arrivalPos="496.00" arrivalSpeed="13.94" duration="75.00" routeLength="994.90" waitingTime="0.00" waitingCount="0" stopTime="0.00" timeLoss="3.45" rerouteNo="0" devices="tripinfo_flow_ns_j2.3" vType="passenger" speedFactor="1.01" vaporized=""/>
    <tripinfo id="flow_ns_j2.2" depart="46.00" departLane="E5_1" departPos="5.10" departSpeed="12.20" departDelay="0.43" arrival="133.00" arrivalLane="E6_0" arrivalPos="496.00" arrivalSpeed="12.12" duration="87.00" routeLength="994.90" waitingTime="0.00" waitingCount="0" stopTime="0.00" timeLoss="4.76" rerouteNo="0" devices="tripinfo_flow_ns_j2.2" vType="passenger" speedFactor="0.88" vaporized=""/>
</tripinfos>
