<?xml version="1.0" encoding="UTF-8"?>

<!-- generated on 2025-11-25 10:59:40 by Eclipse SUMO GUI Version 1.22.0
<sumoConfiguration xmlns:xsi="http://www.w3.org/2001/XMLSchema-instance" xsi:noNamespaceSchemaLocation="http://sumo.dlr.de/xsd/sumoConfiguration.xsd">

    <input>
        <net-file value="/Users/apple/Desktop/vanet_25_nove/vanet_final_v3/sumo_simulation/maps/simple_network.net.xml"/>
        <route-files value="/Users/apple/Desktop/vanet_25_nove/vanet_final_v3/sumo_simulation/maps/routes.rou.xml"/>
    </input>

    <output>
        <summary-output value="./output_rule/summary.xml"/>
        <tripinfo-output value="./output_rule/tripinfo.xml"/>
    </output>

    <time>
        <begin value="0"/>
        <end value="3600"/>
        <step-length value="1"/>
    </time>

    <processing>
        <time-to-teleport value="300"/>
    </processing>

    <traci_server>
        <remote-port value="59333"/>
    </traci_server>

    <gui_only>
        <gui-settings-file value="/Users/apple/Desktop/vanet_25_nove/vanet_final_v3/sumo_simulation/maps/gui-settings.cfg"/>
        <quit-on-end value="false"/>
        <start value="true"/>
    </gui_only>

</sumoConfiguration>
-->

<tripinfos xmlns:xsi="http://www.w3.org/2001/XMLSchema-instance" xsi:noNamespaceSchemaLocation="http://sumo.dlr.de/xsd/tripinfo_file.xsd">
    <tripinfo id="test_vehicle_4" depart="7.00" departLane="E7_0" departPos="5.10" departSpeed="0.00" departDelay="0.00" arrival="80.00" arrivalLane="E8_0" arrivalPos="496.00" arrivalSpeed="14.04" duration="73.00" routeLength="994.90" waitingTime="0.00" waitingCount="0" stopTime="0.00" timeLoss="5.97" rerouteNo="0" devices="tripinfo_test_vehicle_4" vType="passenger" speedFactor="1.08" vaporized=""/>
    <tripinfo id="test_vehicle_2" depart="3.00" departLane="E5_0" departPos="5.10" departSpeed="0.00" departDelay="0.00" arrival="86.00" arrivalLane="E6_0" arrivalPos="496.00" arrivalSpeed="11.96" duration="83.00" routeLength="994.90" waitingTime="0.00" waitingCount="0" stopTime="0.00" timeLoss="6.32" rerouteNo="0" devices="tripinfo_test_vehicle_2" vType="passenger" speedFactor="0.94" vaporized=""/>
    <tripinfo id="flow_ns_j3.1" depart="41.00" departLane="E7_1" departPos="5.10" departSpeed="16.09" departDelay="0.71" arrival="106.00" arrivalLane="E8_0" arrivalPos="496.00" arrivalSpeed="14.86" duration="65.00" routeLength="994.90" waitingTime="0.00" waitingCount="0" stopTime="0.00" timeLoss="2.80" rerouteNo="0" devices="tripinfo_flow_ns_j3.1" vType="passenger" speedFactor="1.16" vaporized=""/>
    <tripinfo id="flow_ns_j2.0" depart="25.00" departLane="E5_1" departPos="5.10" departSpeed="13.77" departDelay="0.00" arrival="107.00" arrivalLane="E6_0" arrivalPos="496.00" arrivalSpeed="13.66" duration="82.00" routeLength="994.90" waitingTime="1.00" waitingCount="1" stopTime="0.00" timeLoss="9.20" rerouteNo="0" devices="tripinfo_flow_ns_j2.0" vType="passenger" speedFactor="0.99" vaporized=""/>
    <tripinfo id="flow_ns_j3.0" depart="30.00" departLane="E7_1" departPos="5.10" departSpeed="12.87" departDelay="0.00" arrival="112.00" arrivalLane="E8_0" arrivalPos="496.00" arrivalSpeed="12.71" duration="82.00" routeLength="994.90" waitingTime="0.00" waitingCount="0" stopTime="0.00" timeLoss="4.26" rerouteNo="0" devices="tripinfo_flow_ns_j3.0" vType="passenger" speedFactor="0.93" vaporized=""/>
    <tripinfo id="flow_ns_j2.1" depart="36.00" departLane="E5_1" departPos="5.10" departSpeed="13.00" departDelay="0.71" arrival="116.00" arrivalLane="E6_0" arrivalPos="496.00" arrivalSpeed="12.10" duration="80.00" routeLength="994.90" waitingTime="0.00" waitingCount="0" stopTime="0.00" timeLoss="3.39" rerouteNo="0" devices="tripinfo_flow_ns_j2.1" vType="passenger" speedFactor="0.94" vaporized=""/>
    <tripinfo id="flow_ns_j3.3" depart="61.00" departLane="E7_1" departPos="5.10" departSpeed="15.72" departDelay="0.14" arrival="127.00" arrivalLane="E8_0" arrivalPos="496.00" arrivalSpeed="15.44" duration="66.00" routeLength="994.90" waitingTime="0.00" waitingCount="0" stopTime="0.00" timeLoss="2.67" rerouteNo="0" devices="tripinfo_flow_ns_j3.3" vType="passenger" speedFactor="1.13" vaporized=""/>
    <tripinfo id="flow_ns_j2.2" depart="46.00" departLane="E5_1" departPos="5.10" departSpeed="13.54" departDelay="0.43" arrival="131.00" arrivalLane="E6_0" arrivalPos="496.00" arrivalSpeed="13.16" duration="85.00" routeLength="994.90" waitingTime="1.00" waitingCount="1" stopTime="0.00" timeLoss="11.19" rerouteNo="0" devices="tripinfo_flow_ns_j2.2" vType="passenger" speedFactor="0.97" vaporized=""/>
    <tripinfo id="emergency_3" depart="60.00" departLane="E7_0" departPos="6.10" departSpeed="0.00" departDelay="0.00" arrival="133.00" arrivalLane="E8_0" arrivalPos="496.00" arrivalSpeed="14.18" duration="73.00" routeLength="993.90" waitingTime="0.00" waitingCount="0" stopTime="0.00" timeLoss="3.75" rerouteNo="0" devices="tripinfo_emergency_3" vType="emergency" speedFactor="1.05" vaporized=""/>
    <tripinfo id="flow_ns_j2.3" depart="56.00" departLane="E5_1" departPos="5.10" departSpeed="12.74" departDelay="0.14" arrival="139.00" arrivalLane="E6_0" arrivalPos="496.00" arrivalSpeed="11.83" duration="83.00" routeLength="994.90" waitingTime="0.00" waitingCount="0" stopTime="0.00" timeLoss="4.29" rerouteNo="0" devices="tripinfo_flow_ns_j2.3" vType="passenger" speedFactor="0.92" vaporized=""/>
    <tripinfo id="flow_ns_j2.5" depart="77.00" departLane="E5_1" departPos="5.10" departSpeed="16.28" departDelay="0.57" arrival="141.00" arrivalLane="E6_1" arrivalPos="496.00" arrivalSpeed="15.39" duration="64.00" routeLength="994.90" waitingTime="0.00" waitingCount="0" stopTime="0.00" timeLoss="2.25" rerouteNo="0" devices="tripinfo_flow_ns_j2.5" vType="passenger" speedFactor="1.17" vaporized=""/>
    <tripinfo id="flow_ns_j3.2" depart="51.00" departLane="E7_0" departPos="5.10" departSpeed="11.47" departDelay="0.43" arrival="143.00" arrivalLane="E8_0" arrivalPos="496.00" arrivalSpeed="10.70" duration="92.00" routeLength="994.90" waitingTime="0.00" waitingCount="0" stopTime="0.00" timeLoss="5.23" rerouteNo="0" devices="tripinfo_flow_ns_j3.2" vType="passenger" speedFactor="0.83" vaporized=""/>
    <tripinfo id="test_vehicle_1" depart="1.00" departLane="E1_0" departPos="5.10" departSpeed="0.00" departDelay="0.00" arrival="146.00" arrivalLane="E3_0" arrivalPos="489.60" arrivalSpeed="14.59" duration="145.00" routeLength="1494.90" waitingTime="23.00" waitingCount="2" stopTime="0.00" timeLoss="43.19" rerouteNo="0" devices="tripinfo_test_vehicle_1" vType="passenger" speedFactor="1.06" vaporized=""/>
    <tripinfo id="emergency_2" depart="55.00" departLane="E5_0" departPos="6.10" departSpeed="0.00" departDelay="0.00" arrival="146.00" arrivalLane="E6_0" arrivalPos="496.00" arrivalSpeed="11.33" duration="91.00" routeLength="993.90" waitingTime="0.00" waitingCount="0" stopTime="0.00" timeLoss="4.01" rerouteNo="0" devices="tripinfo_emergency_2" vType="emergency" speedFactor="0.83" vaporized=""/>
    <tripinfo id="flow_ew_j2.1" depart="24.00" departLane="E1_1" departPos="5.10" departSpeed="15.60" departDelay="0.00" arrival="148.00" arrivalLane="E3_1" arrivalPos="489.60" arrivalSpeed="15.01" duration="124.00" routeLength="1494.90" waitingTime="11.00" waitingCount="1" stopTime="0.00" timeLoss="27.75" rerouteNo="0" devices="tripinfo_flow_ew_j2.1" vType="passenger" speedFactor="1.12" vaporized=""/>
    <tripinfo id="flow_ns_j2.4" depart="67.00" departLane="E5_1" departPos="5.10" departSpeed="12.94" departDelay="0.86" arrival="148.00" arrivalLane="E6_0" arrivalPos="496.00" arrivalSpeed="12.88" duration="81.00" routeLength="994.90" waitingTime="0.00" waitingCount="0" stopTime="0.00" timeLoss="3.88" rerouteNo="0" devices="tripinfo_flow_ns_j2.4" vType="passenger" speedFactor="0.93" vaporized=""/>
    <tripinfo id="test_vehicle_3" depart="5.00" departLane="E1_0" departPos="5.10" departSpeed="0.00" departDelay="0.00" arrival="149.00" arrivalLane="E3_0" arrivalPos="489.60" arrivalSpeed="13.27" duration="144.00" routeLength="1494.90" waitingTime="14.00" waitingCount="2" stopTime="0.00" timeLoss="36.86" rerouteNo="0" devices="tripinfo_test_vehicle_3" vType="passenger" speedFactor="1.01" vaporized=""/>
    <tripinfo id="flow_ew_j2.0" depart="15.00" departLane="E1_1" departPos="5.10" departSpeed="14.26" departDelay="0.00" arrival="150.00" arrivalLane="E3_0" arrivalPos="489.60" arrivalSpeed="13.47" duration="135.00" routeLength="1494.90" waitingTime="13.00" waitingCount="1" stopTime="0.00" timeLoss="30.13" rerouteNo="0" devices="tripinfo_flow_ew_j2.0" vType="passenger" speedFactor="1.03" vaporized=""/>
    <tripinfo id="flow_ew_j2.3" depart="42.00" departLane="E1_0" departPos="5.10" departSpeed="14.14" departDelay="0.00" arrival="160.00" arrivalLane="E3_1" arrivalPos="489.60" arrivalSpeed="13.92" duration="118.00" routeLength="1494.90" waitingTime="0.00" waitingCount="0" stopTime="0.00" timeLoss="12.29" rerouteNo="0" devices="tripinfo_flow_ew_j2.3" vType="passenger" speedFactor="1.02" vaporized=""/>
    <tripinfo id="flow_ew_j2.2" depart="33.00" departLane="E1_1" departPos="5.10" departSpeed="13.08" departDelay="0.00" arrival="161.00" arrivalLane="E3_0" arrivalPos="489.60" arrivalSpeed="12.66" duration="128.00" routeLength="1494.90" waitingTime="2.00" waitingCount="1" stopTime="0.00" timeLoss="13.66" rerouteNo="0" devices="tripinfo_flow_ew_j2.2" vType="passenger" speedFactor="0.94" vaporized=""/>
    <tripinfo id="flow_ns_j2.6" depart="87.00" departLane="E5_0" departPos="5.10" departSpeed="15.31" departDelay="0.28" arrival="162.00" arrivalLane="E6_0" arrivalPos="496.00" arrivalSpeed="14.86" duration="75.00" routeLength="994.90" waitingTime="0.00" waitingCount="0" stopTime="0.00" timeLoss="9.99" rerouteNo="0" devices="tripinfo_flow_ns_j2.6" vType="passenger" speedFactor="1.10" vaporized=""/>
    <tripinfo id="flow_ns_j2.7" depart="98.00" departLane="E5_1" departPos="5.10" departSpeed="15.17" departDelay="1.00" arrival="167.00" arrivalLane="E6_0" arrivalPos="496.00" arrivalSpeed="14.35" duration="69.00" routeLength="994.90" waitingTime="0.00" waitingCount="0" stopTime="0.00" timeLoss="2.69" rerouteNo="0" devices="tripinfo_flow_ns_j2.7" vType="passenger" speedFactor="1.09" vaporized=""/>
    <tripinfo id="flow_ns_j3.4" depart="72.00" departLane="E7_1" departPos="5.10" departSpeed="13.96" departDelay="0.86" arrival="181.00" arrivalLane="E8_0" arrivalPos="496.00" arrivalSpeed="13.23" duration="109.00" routeLength="994.90" waitingTime="29.00" waitingCount="1" stopTime="0.00" timeLoss="36.93" rerouteNo="0" devices="tripinfo_flow_ns_j3.4" vType="passenger" speedFactor="1.01" vaporized=""/>
    <tripinfo id="flow_ns_j3.5" depart="82.00" departLane="E7_1" departPos="5.10" departSpeed="13.52" departDelay="0.57" arrival="182.00" arrivalLane="E8_1" arrivalPos="496.00" arrivalSpeed="12.58" duration="100.00" routeLength="994.90" waitingTime="17.00" waitingCount="1" stopTime="0.00" timeLoss="25.64" rerouteNo="0" devices="tripinfo_flow_ns_j3.5" vType="passenger" speedFactor="0.97" vaporized=""/>
    <tripinfo id="flow_ns_j3.6" depart="92.00" departLane="E7_1" departPos="5.10" departSpeed="14.31" departDelay="0.28" arrival="182.00" arrivalLane="E8_0" arrivalPos="496.00" arrivalSpeed="13.39" duration="90.00" routeLength="994.90" waitingTime="11.00" waitingCount="1" stopTime="0.00" timeLoss="20.38" rerouteNo="0" devices="tripinfo_flow_ns_j3.6" vType="passenger" speedFactor="1.03" vaporized=""/>
    <tripinfo id="flow_ns_j3.7" depart="103.00" departLane="E7_1" departPos="5.10" departSpeed="14.42" departDelay="1.00" arrival="183.00" arrivalLane="E8_1" arrivalPos="496.00" arrivalSpeed="14.00" duration="80.00" routeLength="994.90" waitingTime="0.00" waitingCount="0" stopTime="0.00" timeLoss="10.81" rerouteNo="0" devices="tripinfo_flow_ns_j3.7" vType="passenger" speedFactor="1.04" vaporized=""/>
    <tripinfo id="flow_ew_full.0" depart="20.00" departLane="E1_0" departPos="5.10" departSpeed="14.54" departDelay="0.00" arrival="187.00" arrivalLane="E4_0" arrivalPos="500.00" arrivalSpeed="14.31" duration="167.00" routeLength="1995.00" waitingTime="10.00" waitingCount="1" stopTime="0.00" timeLoss="29.73" rerouteNo="0" devices="tripinfo_flow_ew_full.0" vType="passenger" speedFactor="1.05" vaporized=""/>
    <tripinfo id="flow_ew_j2.5" depart="60.00" departLane="E1_0" departPos="5.10" departSpeed="13.18" departDelay="0.00" arrival="194.00" arrivalLane="E3_0" arrivalPos="489.60" arrivalSpeed="12.92" duration="134.00" routeLength="1494.90" waitingTime="6.00" waitingCount="1" stopTime="0.00" timeLoss="19.60" rerouteNo="0" devices="tripinfo_flow_ew_j2.5" vType="passenger" speedFactor="0.95" vaporized=""/>
    <tripinfo id="flow_ew_j2.8" depart="87.00" departLane="E1_1" departPos="5.10" departSpeed="16.39" departDelay="0.00" arrival="195.00" arrivalLane="E3_1" arrivalPos="489.60" arrivalSpeed="15.03" duration="108.00" routeLength="1494.90" waitingTime="0.00" waitingCount="0" stopTime="0.00" timeLoss="16.48" rerouteNo="0" devices="tripinfo_flow_ew_j2.8" vType="passenger" speedFactor="1.18" vaporized=""/>
</tripinfos>
