<?xml version="1.0" encoding="UTF-8"?>

<!-- generated on 2025-11-01 01:02:48 by Eclipse SUMO GUI Version 1.12.0
<configuration xmlns:xsi="http://www.w3.org/2001/XMLSchema-instance" xsi:noNamespaceSchemaLocation="http://sumo.dlr.de/xsd/sumoConfiguration.xsd">

    <input>
        <net-file value="/home/shreyasdk/capstone/vanet_final_v3/sumo_simulation/maps/simple_network.net.xml"/>
        <route-files value="/home/shreyasdk/capstone/vanet_final_v3/sumo_simulation/maps/routes.rou.xml"/>
    </input>

    <output>
        <summary-output value="./output_rule/summary.xml"/>
        <tripinfo-output value="./output_rule/tripinfo.xml"/>
    </output>

    <time>
        <begin value="0"/>
        <end value="3600"/>
        <step-length value="1"/>
    </time>

    <processing>
        <time-to-teleport value="300"/>
    </processing>

    <traci_server>
        <remote-port value="45307"/>
    </traci_server>

    <gui_only>
        <gui-settings-file value="/home/shreyasdk/capstone/vanet_final_v3/sumo_simulation/maps/gui-settings.cfg"/>
        <quit-on-end value="false"/>
        <start value="true"/>
        <tracker-interval value="1"/>
    </gui_only>

</configuration>
-->

<tripinfos xmlns:xsi="http://www.w3.org/2001/XMLSchema-instance" xsi:noNamespaceSchemaLocation="http://sumo.dlr.de/xsd/tripinfo_file.xsd">
    <tripinfo id="test_vehicle_4" depart="7.00" departLane="E7_0" departPos="5.10" departSpeed="0.00" departDelay="0.00" arrival="80.00" arrivalLane="E8_0" arrivalPos="496.00" arrivalSpeed="14.87" duration="73.00" routeLength="994.90" waitingTime="0.00" waitingCount="0" stopTime="0.00" timeLoss="5.96" rerouteNo="0" devices="tripinfo_test_vehicle_4" vType="passenger" speedFactor="1.08" vaporized=""/>
    <tripinfo id="test_vehicle_2" depart="3.00" departLane="E5_0" departPos="5.10" departSpeed="0.00" departDelay="0.00" arrival="86.00" arrivalLane="E6_0" arrivalPos="496.00" arrivalSpeed="12.98" duration="83.00" routeLength="994.90" waitingTime="0.00" waitingCount="0" stopTime="0.00" timeLoss="6.28" rerouteNo="0" devices="tripinfo_test_vehicle_2" vType="passenger" speedFactor="0.94" vaporized=""/>
    <tripinfo id="flow_ns_j2.1" depart="36.00" departLane="E5_1" departPos="5.10" departSpeed="14.54" departDelay="0.71" arrival="108.00" arrivalLane="E6_0" arrivalPos="496.00" arrivalSpeed="13.36" duration="72.00" routeLength="994.90" waitingTime="0.00" waitingCount="0" stopTime="0.00" timeLoss="2.80" rerouteNo="0" devices="tripinfo_flow_ns_j2.1" vType="passenger" speedFactor="1.05" vaporized=""/>
    <tripinfo id="flow_ns_j3.1" depart="41.00" departLane="E7_1" departPos="5.10" departSpeed="15.60" departDelay="0.71" arrival="108.00" arrivalLane="E8_0" arrivalPos="496.00" arrivalSpeed="14.41" duration="67.00" routeLength="994.90" waitingTime="0.00" waitingCount="0" stopTime="0.00" timeLoss="3.01" rerouteNo="0" devices="tripinfo_flow_ns_j3.1" vType="passenger" speedFactor="1.12" vaporized=""/>
    <tripinfo id="flow_ns_j2.0" depart="25.00" departLane="E5_1" departPos="5.10" departSpeed="13.03" departDelay="0.00" arrival="113.00" arrivalLane="E6_0" arrivalPos="496.00" arrivalSpeed="12.76" duration="88.00" routeLength="994.90" waitingTime="3.00" waitingCount="1" stopTime="0.00" timeLoss="11.36" rerouteNo="0" devices="tripinfo_flow_ns_j2.0" vType="passenger" speedFactor="0.94" vaporized=""/>
    <tripinfo id="flow_ns_j3.0" depart="30.00" departLane="E7_1" departPos="5.10" departSpeed="11.90" departDelay="0.00" arrival="119.00" arrivalLane="E8_0" arrivalPos="496.00" arrivalSpeed="11.77" duration="89.00" routeLength="994.90" waitingTime="0.00" waitingCount="0" stopTime="0.00" timeLoss="4.53" rerouteNo="0" devices="tripinfo_flow_ns_j3.0" vType="passenger" speedFactor="0.86" vaporized=""/>
    <tripinfo id="test_vehicle_1" depart="1.00" departLane="E1_0" departPos="5.10" departSpeed="0.00" departDelay="0.00" arrival="129.00" arrivalLane="E3_0" arrivalPos="489.60" arrivalSpeed="14.07" duration="128.00" routeLength="1494.90" waitingTime="12.00" waitingCount="1" stopTime="0.00" timeLoss="25.80" rerouteNo="0" devices="tripinfo_test_vehicle_1" vType="passenger" speedFactor="1.06" vaporized=""/>
    <tripinfo id="test_vehicle_3" depart="5.00" departLane="E1_0" departPos="5.10" departSpeed="0.00" departDelay="0.00" arrival="132.00" arrivalLane="E3_0" arrivalPos="489.60" arrivalSpeed="13.91" duration="127.00" routeLength="1494.90" waitingTime="7.00" waitingCount="1" stopTime="0.00" timeLoss="20.43" rerouteNo="0" devices="tripinfo_test_vehicle_3" vType="passenger" speedFactor="1.01" vaporized=""/>
    <tripinfo id="flow_ns_j3.2" depart="51.00" departLane="E7_0" departPos="5.10" departSpeed="16.09" departDelay="0.43" arrival="135.00" arrivalLane="E8_0" arrivalPos="496.00" arrivalSpeed="15.30" duration="84.00" routeLength="994.90" waitingTime="14.00" waitingCount="1" stopTime="0.00" timeLoss="21.46" rerouteNo="0" devices="tripinfo_flow_ns_j3.2" vType="passenger" speedFactor="1.16" vaporized=""/>
    <tripinfo id="flow_ns_j2.3" depart="56.00" departLane="E5_1" departPos="5.10" departSpeed="14.03" departDelay="0.14" arrival="138.00" arrivalLane="E6_0" arrivalPos="496.00" arrivalSpeed="12.91" duration="82.00" routeLength="994.90" waitingTime="2.00" waitingCount="1" stopTime="0.00" timeLoss="10.61" rerouteNo="0" devices="tripinfo_flow_ns_j2.3" vType="passenger" speedFactor="1.01" vaporized=""/>
    <tripinfo id="flow_ns_j2.2" depart="46.00" departLane="E5_1" departPos="5.10" departSpeed="12.20" departDelay="0.43" arrival="144.00" arrivalLane="E6_0" arrivalPos="496.00" arrivalSpeed="11.67" duration="98.00" routeLength="994.90" waitingTime="6.00" waitingCount="1" stopTime="0.00" timeLoss="15.61" rerouteNo="0" devices="tripinfo_flow_ns_j2.2" vType="passenger" speedFactor="0.88" vaporized=""/>
    <tripinfo id="flow_ns_j3.3" depart="61.00" departLane="E7_1" departPos="5.10" departSpeed="12.36" departDelay="0.14" arrival="147.00" arrivalLane="E8_0" arrivalPos="496.00" arrivalSpeed="11.34" duration="86.00" routeLength="994.90" waitingTime="0.00" waitingCount="0" stopTime="0.00" timeLoss="4.70" rerouteNo="0" devices="tripinfo_flow_ns_j3.3" vType="passenger" speedFactor="0.89" vaporized=""/>
    <tripinfo id="flow_ew_j2.1" depart="24.00" departLane="E1_1" departPos="5.10" departSpeed="12.31" departDelay="0.00" arrival="159.00" arrivalLane="E3_1" arrivalPos="489.60" arrivalSpeed="11.87" duration="135.00" routeLength="1494.90" waitingTime="1.00" waitingCount="1" stopTime="0.00" timeLoss="13.39" rerouteNo="0" devices="tripinfo_flow_ew_j2.1" vType="passenger" speedFactor="0.89" vaporized=""/>
    <tripinfo id="flow_ew_j2.0" depart="15.00" departLane="E1_1" departPos="5.10" departSpeed="11.54" departDelay="0.00" arrival="160.00" arrivalLane="E3_0" arrivalPos="489.60" arrivalSpeed="11.48" duration="145.00" routeLength="1494.90" waitingTime="2.00" waitingCount="1" stopTime="0.00" timeLoss="15.43" rerouteNo="0" devices="tripinfo_flow_ew_j2.0" vType="passenger" speedFactor="0.83" vaporized=""/>
    <tripinfo id="flow_ns_j2.5" depart="77.00" departLane="E5_1" departPos="5.10" departSpeed="15.72" departDelay="0.57" arrival="161.00" arrivalLane="E6_0" arrivalPos="496.00" arrivalSpeed="14.47" duration="84.00" routeLength="994.90" waitingTime="12.00" waitingCount="1" stopTime="0.00" timeLoss="20.49" rerouteNo="0" devices="tripinfo_flow_ns_j2.5" vType="passenger" speedFactor="1.13" vaporized=""/>
    <tripinfo id="flow_ew_j2.2" depart="33.00" departLane="E1_1" departPos="5.10" departSpeed="11.52" departDelay="0.00" arrival="162.00" arrivalLane="E3_0" arrivalPos="489.60" arrivalSpeed="14.11" duration="129.00" routeLength="1494.90" waitingTime="11.00" waitingCount="1" stopTime="0.00" timeLoss="23.68" rerouteNo="0" devices="tripinfo_flow_ew_j2.2" vType="passenger" speedFactor="1.03" vaporized=""/>
    <tripinfo id="flow_ew_j2.3" depart="42.00" departLane="E1_1" departPos="5.10" departSpeed="13.77" departDelay="0.00" arrival="162.00" arrivalLane="E3_1" arrivalPos="489.60" arrivalSpeed="13.68" duration="120.00" routeLength="1494.90" waitingTime="0.00" waitingCount="0" stopTime="0.00" timeLoss="10.79" rerouteNo="0" devices="tripinfo_flow_ew_j2.3" vType="passenger" speedFactor="0.99" vaporized=""/>
    <tripinfo id="flow_ns_j2.6" depart="87.00" departLane="E5_1" departPos="5.10" departSpeed="16.28" departDelay="0.28" arrival="162.00" arrivalLane="E6_1" arrivalPos="496.00" arrivalSpeed="15.34" duration="75.00" routeLength="994.90" waitingTime="3.00" waitingCount="1" stopTime="0.00" timeLoss="13.07" rerouteNo="0" devices="tripinfo_flow_ns_j2.6" vType="passenger" speedFactor="1.17" vaporized=""/>
    <tripinfo id="flow_ns_j2.7" depart="98.00" departLane="E5_0" departPos="5.10" departSpeed="16.39" departDelay="1.00" arrival="163.00" arrivalLane="E6_1" arrivalPos="496.00" arrivalSpeed="16.17" duration="65.00" routeLength="994.90" waitingTime="0.00" waitingCount="0" stopTime="0.00" timeLoss="4.09" rerouteNo="0" devices="tripinfo_flow_ns_j2.7" vType="passenger" speedFactor="1.18" vaporized=""/>
    <tripinfo id="emergency_1" depart="10.00" departLane="E1_0" departPos="6.10" departSpeed="0.00" departDelay="0.00" arrival="166.00" arrivalLane="E4_0" arrivalPos="500.00" arrivalSpeed="14.12" duration="156.00" routeLength="1994.00" waitingTime="6.00" waitingCount="1" stopTime="0.00" timeLoss="16.66" rerouteNo="0" devices="tripinfo_emergency_1" vType="emergency" speedFactor="1.03" vaporized=""/>
    <tripinfo id="flow_ns_j3.5" depart="82.00" departLane="E7_1" departPos="5.10" departSpeed="16.04" departDelay="0.57" arrival="167.00" arrivalLane="E8_0" arrivalPos="496.00" arrivalSpeed="15.10" duration="85.00" routeLength="994.90" waitingTime="14.00" waitingCount="1" stopTime="0.00" timeLoss="22.49" rerouteNo="0" devices="tripinfo_flow_ns_j3.5" vType="passenger" speedFactor="1.15" vaporized=""/>
    <tripinfo id="flow_ew_full.0" depart="20.00" departLane="E1_1" departPos="5.10" departSpeed="14.53" departDelay="0.00" arrival="170.00" arrivalLane="E4_0" arrivalPos="500.00" arrivalSpeed="14.45" duration="150.00" routeLength="1995.00" waitingTime="0.00" waitingCount="0" stopTime="0.00" timeLoss="12.35" rerouteNo="0" devices="tripinfo_flow_ew_full.0" vType="passenger" speedFactor="1.05" vaporized=""/>
    <tripinfo id="flow_ns_j3.7" depart="103.00" departLane="E7_1" departPos="5.10" departSpeed="15.31" departDelay="1.00" arrival="171.00" arrivalLane="E8_1" arrivalPos="496.00" arrivalSpeed="14.88" duration="68.00" routeLength="994.90" waitingTime="0.00" waitingCount="0" stopTime="0.00" timeLoss="2.82" rerouteNo="0" devices="tripinfo_flow_ns_j3.7" vType="passenger" speedFactor="1.10" vaporized=""/>
    <tripinfo id="flow_ns_j2.4" depart="67.00" departLane="E5_1" departPos="5.10" departSpeed="11.47" departDelay="0.86" arrival="173.00" arrivalLane="E6_0" arrivalPos="496.00" arrivalSpeed="10.32" duration="106.00" routeLength="994.90" waitingTime="9.00" waitingCount="1" stopTime="0.00" timeLoss="19.01" rerouteNo="0" devices="tripinfo_flow_ns_j2.4" vType="passenger" speedFactor="0.83" vaporized=""/>
    <tripinfo id="flow_ns_j3.4" depart="72.00" departLane="E7_1" departPos="5.10" departSpeed="13.18" departDelay="0.86" arrival="174.00" arrivalLane="E8_0" arrivalPos="496.00" arrivalSpeed="11.96" duration="102.00" routeLength="994.90" waitingTime="18.00" waitingCount="1" stopTime="0.00" timeLoss="25.92" rerouteNo="0" devices="tripinfo_flow_ns_j3.4" vType="passenger" speedFactor="0.95" vaporized=""/>
    <tripinfo id="flow_ns_j3.6" depart="92.00" departLane="E7_1" departPos="5.10" departSpeed="14.16" departDelay="0.28" arrival="174.00" arrivalLane="E8_1" arrivalPos="496.00" arrivalSpeed="13.54" duration="82.00" routeLength="994.90" waitingTime="1.00" waitingCount="1" stopTime="0.00" timeLoss="11.38" rerouteNo="0" devices="tripinfo_flow_ns_j3.6" vType="passenger" speedFactor="1.02" vaporized=""/>
    <tripinfo id="flow_ew_full.1" depart="32.00" departLane="E1_1" departPos="5.10" departSpeed="15.15" departDelay="0.00" arrival="184.00" arrivalLane="E4_0" arrivalPos="500.00" arrivalSpeed="14.51" duration="152.00" routeLength="1995.00" waitingTime="8.00" waitingCount="1" stopTime="0.00" timeLoss="20.07" rerouteNo="0" devices="tripinfo_flow_ew_full.1" vType="passenger" speedFactor="1.09" vaporized=""/>
    <tripinfo id="flow_ew_j2.4" depart="51.00" departLane="E1_1" departPos="5.10" departSpeed="9.62" departDelay="0.00" arrival="187.00" arrivalLane="E3_0" arrivalPos="489.60" arrivalSpeed="12.15" duration="136.00" routeLength="1494.90" waitingTime="8.00" waitingCount="1" stopTime="0.00" timeLoss="20.67" rerouteNo="0" devices="tripinfo_flow_ew_j2.4" vType="passenger" speedFactor="0.94" vaporized=""/>
    <tripinfo id="flow_ns_j2.9" depart="118.00" departLane="E5_1" departPos="5.10" departSpeed="15.11" departDelay="0.43" arrival="187.00" arrivalLane="E6_0" arrivalPos="496.00" arrivalSpeed="14.78" duration="69.00" routeLength="994.90" waitingTime="0.00" waitingCount="0" stopTime="0.00" timeLoss="3.01" rerouteNo="0" devices="tripinfo_flow_ns_j2.9" vType="passenger" speedFactor="1.09" vaporized=""/>
    <tripinfo id="flow_ew_j2.5" depart="60.00" departLane="E1_1" departPos="5.10" departSpeed="13.54" departDelay="0.00" arrival="190.00" arrivalLane="E3_0" arrivalPos="489.60" arrivalSpeed="12.36" duration="130.00" routeLength="1494.90" waitingTime="8.00" waitingCount="1" stopTime="0.00" timeLoss="18.94" rerouteNo="0" devices="tripinfo_flow_ew_j2.5" vType="passenger" speedFactor="0.98" vaporized=""/>
    <tripinfo id="flow_ns_j2.8" depart="108.00" departLane="E5_0" departPos="5.10" departSpeed="13.29" departDelay="0.71" arrival="193.00" arrivalLane="E6_0" arrivalPos="496.00" arrivalSpeed="13.24" duration="85.00" routeLength="994.90" waitingTime="1.00" waitingCount="1" stopTime="0.00" timeLoss="9.26" rerouteNo="0" devices="tripinfo_flow_ns_j2.8" vType="passenger" speedFactor="0.96" vaporized=""/>
    <tripinfo id="flow_ew_j2.6" depart="69.00" departLane="E1_1" departPos="5.10" departSpeed="8.15" departDelay="0.00" arrival="195.00" arrivalLane="E3_0" arrivalPos="489.60" arrivalSpeed="12.33" duration="126.00" routeLength="1494.90" waitingTime="0.00" waitingCount="0" stopTime="0.00" timeLoss="7.71" rerouteNo="0" devices="tripinfo_flow_ew_j2.6" vType="passenger" speedFactor="0.92" vaporized=""/>
    <tripinfo id="flow_ns_j3.8" depart="113.00" departLane="E7_1" departPos="5.10" departSpeed="15.17" departDelay="0.71" arrival="195.00" arrivalLane="E8_0" arrivalPos="496.00" arrivalSpeed="14.84" duration="82.00" routeLength="994.90" waitingTime="6.00" waitingCount="1" stopTime="0.00" timeLoss="15.96" rerouteNo="0" devices="tripinfo_flow_ns_j3.8" vType="passenger" speedFactor="1.09" vaporized=""/>
    <tripinfo id="flow_ns_j3.10" depart="133.00" departLane="E7_1" departPos="5.10" departSpeed="16.24" departDelay="0.14" arrival="197.00" arrivalLane="E8_0" arrivalPos="496.00" arrivalSpeed="15.96" duration="64.00" routeLength="994.90" waitingTime="0.00" waitingCount="0" stopTime="0.00" timeLoss="2.46" rerouteNo="0" devices="tripinfo_flow_ns_j3.10" vType="passenger" speedFactor="1.17" vaporized=""/>
    <tripinfo id="emergency_flow.0" depart="50.00" departLane="E1_1" departPos="6.10" departSpeed="13.08" departDelay="0.00" arrival="207.00" arrivalLane="E4_0" arrivalPos="500.00" arrivalSpeed="12.48" duration="157.00" routeLength="1994.00" waitingTime="0.00" waitingCount="0" stopTime="0.00" timeLoss="3.67" rerouteNo="0" devices="tripinfo_emergency_flow.0" vType="emergency" speedFactor="0.94" vaporized=""/>
    <tripinfo id="flow_ns_j3.9" depart="123.00" departLane="E7_1" departPos="5.10" departSpeed="12.51" departDelay="0.43" arrival="207.00" arrivalLane="E8_0" arrivalPos="496.00" arrivalSpeed="12.39" duration="84.00" routeLength="994.90" waitingTime="0.00" waitingCount="0" stopTime="0.00" timeLoss="4.28" rerouteNo="0" devices="tripinfo_flow_ns_j3.9" vType="passenger" speedFactor="0.90" vaporized=""/>
    <tripinfo id="flow_ew_full.2" depart="44.00" departLane="E1_1" departPos="5.10" departSpeed="12.87" departDelay="0.00" arrival="211.00" arrivalLane="E4_0" arrivalPos="500.00" arrivalSpeed="12.29" duration="167.00" routeLength="1995.00" waitingTime="0.00" waitingCount="0" stopTime="0.00" timeLoss="11.15" rerouteNo="0" devices="tripinfo_flow_ew_full.2" vType="passenger" speedFactor="0.93" vaporized=""/>
    <tripinfo id="flow_ew_j2.7" depart="78.00" departLane="E1_1" departPos="5.10" departSpeed="12.94" departDelay="0.00" arrival="213.00" arrivalLane="E3_0" arrivalPos="489.60" arrivalSpeed="12.67" duration="135.00" routeLength="1494.90" waitingTime="7.00" waitingCount="1" stopTime="0.00" timeLoss="19.34" rerouteNo="0" devices="tripinfo_flow_ew_j2.7" vType="passenger" speedFactor="0.93" vaporized=""/>
</tripinfos>
