<?xml version="1.0" encoding="UTF-8"?>

<!-- generated on 2025-10-26 22:59:20 by Eclipse SUMO GUI Version 1.24.0
<sumoConfiguration xmlns:xsi="http://www.w3.org/2001/XMLSchema-instance" xsi:noNamespaceSchemaLocation="http://sumo.dlr.de/xsd/sumoConfiguration.xsd">

    <input>
        <net-file value="C:\Users\vishe\OneDrive\Desktop\vanet\vanet_final_v3\sumo_simulation\maps/simple_network.net.xml"/>
        <route-files value="C:\Users\vishe\OneDrive\Desktop\vanet\vanet_final_v3\sumo_simulation\maps/routes.rou.xml"/>
    </input>

    <output>
        <summary-output value="C:\Users\vishe\OneDrive\Desktop\vanet\vanet_final_v3\sumo_simulation\output_rule\summary.xml"/>
        <tripinfo-output value="C:\Users\vishe\OneDrive\Desktop\vanet\vanet_final_v3\sumo_simulation\output_rule\tripinfo.xml"/>
    </output>

    <time>
        <begin value="0"/>
        <end value="3600"/>
        <step-length value="1"/>
    </time>

    <processing>
        <time-to-teleport value="300"/>
    </processing>

    <traci_server>
        <remote-port value="54015"/>
    </traci_server>

    <gui_only>
        <gui-settings-file value="C:\Users\vishe\OneDrive\Desktop\vanet\vanet_final_v3\sumo_simulation\maps/gui-settings.cfg"/>
        <quit-on-end value="false"/>
        <start value="true"/>
    </gui_only>

</sumoConfiguration>
-->

<tripinfos xmlns:xsi="http://www.w3.org/2001/XMLSchema-instance" xsi:noNamespaceSchemaLocation="http://sumo.dlr.de/xsd/tripinfo_file.xsd">
    <tripinfo id="test_vehicle_4" depart="7.00" departLane="E7_0" departPos="5.10" departSpeed="0.00" departDelay="0.00" arrival="98.00" arrivalLane="E8_0" arrivalPos="496.00" arrivalSpeed="13.91" duration="91.00" routeLength="994.90" waitingTime="12.00" waitingCount="1" stopTime="0.00" timeLoss="24.37" rerouteNo="0" devices="tripinfo_test_vehicle_4" vType="passenger" speedFactor="1.08" vaporized=""/>
    <tripinfo id="test_vehicle_2" depart="3.00" departLane="E5_0" departPos="5.10" departSpeed="0.00" departDelay="0.00" arrival="103.00" arrivalLane="E6_0" arrivalPos="496.00" arrivalSpeed="11.85" duration="100.00" routeLength="994.90" waitingTime="13.00" waitingCount="1" stopTime="0.00" timeLoss="23.37" rerouteNo="0" devices="tripinfo_test_vehicle_2" vType="passenger" speedFactor="0.94" vaporized=""/>
    <tripinfo id="flow_ns_j2.0" depart="25.00" departLane="E5_1" departPos="5.10" departSpeed="13.03" departDelay="0.00" arrival="106.00" arrivalLane="E6_0" arrivalPos="496.00" arrivalSpeed="11.98" duration="81.00" routeLength="994.90" waitingTime="0.00" waitingCount="0" stopTime="0.00" timeLoss="3.99" rerouteNo="0" devices="tripinfo_flow_ns_j2.0" vType="passenger" speedFactor="0.94" vaporized=""/>
    <tripinfo id="flow_ns_j2.1" depart="36.00" departLane="E5_1" departPos="5.10" departSpeed="14.54" departDelay="0.71" arrival="108.00" arrivalLane="E6_0" arrivalPos="496.00" arrivalSpeed="14.54" duration="72.00" routeLength="994.90" waitingTime="0.00" waitingCount="0" stopTime="0.00" timeLoss="2.83" rerouteNo="0" devices="tripinfo_flow_ns_j2.1" vType="passenger" speedFactor="1.05" vaporized=""/>
    <tripinfo id="flow_ns_j3.1" depart="41.00" departLane="E7_1" departPos="5.10" departSpeed="15.60" departDelay="0.71" arrival="108.00" arrivalLane="E8_0" arrivalPos="496.00" arrivalSpeed="15.08" duration="67.00" routeLength="994.90" waitingTime="0.00" waitingCount="0" stopTime="0.00" timeLoss="2.75" rerouteNo="0" devices="tripinfo_flow_ns_j3.1" vType="passenger" speedFactor="1.12" vaporized=""/>
    <tripinfo id="flow_ns_j3.2" depart="51.00" departLane="E7_0" departPos="5.10" departSpeed="16.09" departDelay="0.43" arrival="116.00" arrivalLane="E8_1" arrivalPos="496.00" arrivalSpeed="15.40" duration="65.00" routeLength="994.90" waitingTime="0.00" waitingCount="0" stopTime="0.00" timeLoss="2.75" rerouteNo="0" devices="tripinfo_flow_ns_j3.2" vType="passenger" speedFactor="1.16" vaporized=""/>
    <tripinfo id="flow_ns_j3.0" depart="30.00" departLane="E7_1" departPos="5.10" departSpeed="11.90" departDelay="0.00" arrival="119.00" arrivalLane="E8_0" arrivalPos="496.00" arrivalSpeed="11.45" duration="89.00" routeLength="994.90" waitingTime="0.00" waitingCount="0" stopTime="0.00" timeLoss="4.95" rerouteNo="0" devices="tripinfo_flow_ns_j3.0" vType="passenger" speedFactor="0.86" vaporized=""/>
    <tripinfo id="flow_ns_j2.2" depart="46.00" departLane="E5_1" departPos="5.10" departSpeed="12.20" departDelay="0.43" arrival="132.00" arrivalLane="E6_0" arrivalPos="496.00" arrivalSpeed="10.95" duration="86.00" routeLength="994.90" waitingTime="0.00" waitingCount="0" stopTime="0.00" timeLoss="4.38" rerouteNo="0" devices="tripinfo_flow_ns_j2.2" vType="passenger" speedFactor="0.88" vaporized=""/>
    <tripinfo id="flow_ns_j2.5" depart="77.00" departLane="E5_1" departPos="5.10" departSpeed="15.72" departDelay="0.57" arrival="217.00" arrivalLane="E6_0" arrivalPos="496.00" arrivalSpeed="14.81" duration="140.00" routeLength="994.90" waitingTime="68.00" waitingCount="1" stopTime="0.00" timeLoss="75.83" rerouteNo="0" devices="tripinfo_flow_ns_j2.5" vType="passenger" speedFactor="1.13" vaporized=""/>
    <tripinfo id="flow_ns_j2.6" depart="87.00" departLane="E5_0" departPos="5.10" departSpeed="16.28" departDelay="0.28" arrival="218.00" arrivalLane="E6_1" arrivalPos="496.00" arrivalSpeed="15.47" duration="131.00" routeLength="994.90" waitingTime="59.00" waitingCount="1" stopTime="0.00" timeLoss="69.19" rerouteNo="0" devices="tripinfo_flow_ns_j2.6" vType="passenger" speedFactor="1.17" vaporized=""/>
    <tripinfo id="flow_ns_j3.5" depart="82.00" departLane="E7_1" departPos="5.10" departSpeed="16.03" departDelay="0.57" arrival="220.00" arrivalLane="E8_0" arrivalPos="496.00" arrivalSpeed="15.56" duration="138.00" routeLength="994.90" waitingTime="64.00" waitingCount="1" stopTime="0.00" timeLoss="75.28" rerouteNo="0" devices="tripinfo_flow_ns_j3.5" vType="passenger" speedFactor="1.15" vaporized=""/>
    <tripinfo id="flow_ns_j2.3" depart="56.00" departLane="E5_1" departPos="5.10" departSpeed="14.03" departDelay="0.14" arrival="221.00" arrivalLane="E6_0" arrivalPos="496.00" arrivalSpeed="13.99" duration="165.00" routeLength="994.90" waitingTime="85.00" waitingCount="1" stopTime="0.00" timeLoss="93.15" rerouteNo="0" devices="tripinfo_flow_ns_j2.3" vType="passenger" speedFactor="1.01" vaporized=""/>
    <tripinfo id="flow_ns_j3.4" depart="72.00" departLane="E7_1" departPos="5.10" departSpeed="13.18" departDelay="0.86" arrival="223.00" arrivalLane="E8_0" arrivalPos="496.00" arrivalSpeed="12.29" duration="151.00" routeLength="994.90" waitingTime="65.00" waitingCount="1" stopTime="0.00" timeLoss="74.71" rerouteNo="0" devices="tripinfo_flow_ns_j3.4" vType="passenger" speedFactor="0.95" vaporized=""/>
    <tripinfo id="flow_ns_j3.8" depart="113.00" departLane="E7_1" departPos="5.10" departSpeed="15.17" departDelay="0.71" arrival="223.00" arrivalLane="E8_1" arrivalPos="496.00" arrivalSpeed="13.92" duration="110.00" routeLength="994.90" waitingTime="33.00" waitingCount="1" stopTime="0.00" timeLoss="43.52" rerouteNo="0" devices="tripinfo_flow_ns_j3.8" vType="passenger" speedFactor="1.09" vaporized=""/>
    <tripinfo id="flow_ns_j3.10" depart="133.00" departLane="E7_1" departPos="5.10" departSpeed="16.24" departDelay="0.14" arrival="224.00" arrivalLane="E8_1" arrivalPos="496.00" arrivalSpeed="15.15" duration="91.00" routeLength="994.90" waitingTime="17.00" waitingCount="1" stopTime="0.00" timeLoss="29.43" rerouteNo="0" devices="tripinfo_flow_ns_j3.10" vType="passenger" speedFactor="1.17" vaporized=""/>
    <tripinfo id="flow_ns_j3.3" depart="61.00" departLane="E7_1" departPos="5.10" departSpeed="12.36" departDelay="0.14" arrival="226.00" arrivalLane="E8_0" arrivalPos="496.00" arrivalSpeed="12.02" duration="165.00" routeLength="994.90" waitingTime="75.00" waitingCount="1" stopTime="0.00" timeLoss="84.32" rerouteNo="0" devices="tripinfo_flow_ns_j3.3" vType="passenger" speedFactor="0.89" vaporized=""/>
    <tripinfo id="flow_ns_j2.8" depart="108.00" departLane="E5_0" departPos="5.10" departSpeed="13.29" departDelay="0.71" arrival="227.00" arrivalLane="E6_0" arrivalPos="496.00" arrivalSpeed="12.46" duration="119.00" routeLength="994.90" waitingTime="34.00" waitingCount="1" stopTime="0.00" timeLoss="43.26" rerouteNo="0" devices="tripinfo_flow_ns_j2.8" vType="passenger" speedFactor="0.96" vaporized=""/>
    <tripinfo id="flow_ns_j3.6" depart="92.00" departLane="E7_0" departPos="5.10" departSpeed="14.16" departDelay="0.28" arrival="228.00" arrivalLane="E8_0" arrivalPos="496.00" arrivalSpeed="13.22" duration="136.00" routeLength="994.90" waitingTime="50.00" waitingCount="1" stopTime="0.00" timeLoss="65.34" rerouteNo="0" devices="tripinfo_flow_ns_j3.6" vType="passenger" speedFactor="1.02" vaporized=""/>
    <tripinfo id="flow_ns_j3.11" depart="144.00" departLane="E7_0" departPos="5.10" departSpeed="13.83" departDelay="0.85" arrival="228.00" arrivalLane="E8_1" arrivalPos="496.00" arrivalSpeed="12.75" duration="84.00" routeLength="994.90" waitingTime="1.00" waitingCount="1" stopTime="0.00" timeLoss="11.99" rerouteNo="0" devices="tripinfo_flow_ns_j3.11" vType="passenger" speedFactor="1.00" vaporized=""/>
    <tripinfo id="flow_ns_j3.7" depart="103.00" departLane="E7_1" departPos="5.10" departSpeed="15.31" departDelay="1.00" arrival="230.00" arrivalLane="E8_0" arrivalPos="496.00" arrivalSpeed="14.74" duration="127.00" routeLength="994.90" waitingTime="44.00" waitingCount="1" stopTime="0.00" timeLoss="61.13" rerouteNo="0" devices="tripinfo_flow_ns_j3.7" vType="passenger" speedFactor="1.10" vaporized=""/>
    <tripinfo id="flow_ns_j2.4" depart="67.00" departLane="E5_0" departPos="5.10" departSpeed="11.47" departDelay="0.86" arrival="231.00" arrivalLane="E6_0" arrivalPos="496.00" arrivalSpeed="10.40" duration="164.00" routeLength="994.90" waitingTime="67.00" waitingCount="1" stopTime="0.00" timeLoss="76.79" rerouteNo="0" devices="tripinfo_flow_ns_j2.4" vType="passenger" speedFactor="0.83" vaporized=""/>
    <tripinfo id="flow_ns_j3.9" depart="123.00" departLane="E7_1" departPos="5.10" departSpeed="12.51" departDelay="0.43" arrival="232.00" arrivalLane="E8_1" arrivalPos="496.00" arrivalSpeed="12.22" duration="109.00" routeLength="994.90" waitingTime="17.00" waitingCount="1" stopTime="0.00" timeLoss="28.60" rerouteNo="0" devices="tripinfo_flow_ns_j3.9" vType="passenger" speedFactor="0.90" vaporized=""/>
    <tripinfo id="flow_ns_j2.7" depart="98.00" departLane="E5_1" departPos="5.10" departSpeed="16.39" departDelay="1.00" arrival="233.00" arrivalLane="E6_0" arrivalPos="496.00" arrivalSpeed="14.20" duration="135.00" routeLength="994.90" waitingTime="49.00" waitingCount="1" stopTime="0.00" timeLoss="73.58" rerouteNo="0" devices="tripinfo_flow_ns_j2.7" vType="passenger" speedFactor="1.18" vaporized=""/>
    <tripinfo id="flow_ns_j3.12" depart="154.00" departLane="E7_1" departPos="5.10" departSpeed="13.47" departDelay="0.57" arrival="233.00" arrivalLane="E8_0" arrivalPos="496.00" arrivalSpeed="13.29" duration="79.00" routeLength="994.90" waitingTime="0.00" waitingCount="0" stopTime="0.00" timeLoss="4.21" rerouteNo="0" devices="tripinfo_flow_ns_j3.12" vType="passenger" speedFactor="0.97" vaporized=""/>
    <tripinfo id="flow_ns_j2.9" depart="118.00" departLane="E5_1" departPos="5.10" departSpeed="15.11" departDelay="0.43" arrival="234.00" arrivalLane="E6_0" arrivalPos="496.00" arrivalSpeed="13.51" duration="116.00" routeLength="994.90" waitingTime="28.00" waitingCount="1" stopTime="0.00" timeLoss="50.16" rerouteNo="0" devices="tripinfo_flow_ns_j2.9" vType="passenger" speedFactor="1.09" vaporized=""/>
    <tripinfo id="flow_ns_j2.10" depart="128.00" departLane="E5_0" departPos="5.10" departSpeed="11.81" departDelay="0.14" arrival="234.00" arrivalLane="E6_1" arrivalPos="496.00" arrivalSpeed="11.08" duration="106.00" routeLength="994.90" waitingTime="10.00" waitingCount="1" stopTime="0.00" timeLoss="20.93" rerouteNo="0" devices="tripinfo_flow_ns_j2.10" vType="passenger" speedFactor="0.85" vaporized=""/>
    <tripinfo id="flow_ns_j2.12" depart="149.00" departLane="E5_0" departPos="5.10" departSpeed="12.49" departDelay="0.57" arrival="235.00" arrivalLane="E6_1" arrivalPos="496.00" arrivalSpeed="11.89" duration="86.00" routeLength="994.90" waitingTime="0.00" waitingCount="0" stopTime="0.00" timeLoss="6.18" rerouteNo="0" devices="tripinfo_flow_ns_j2.12" vType="passenger" speedFactor="0.90" vaporized=""/>
    <tripinfo id="flow_ns_j2.11" depart="139.00" departLane="E5_1" departPos="5.10" departSpeed="14.12" departDelay="0.85" arrival="236.00" arrivalLane="E6_0" arrivalPos="496.00" arrivalSpeed="13.50" duration="97.00" routeLength="994.90" waitingTime="8.00" waitingCount="1" stopTime="0.00" timeLoss="26.28" rerouteNo="0" devices="tripinfo_flow_ns_j2.11" vType="passenger" speedFactor="1.02" vaporized=""/>
    <tripinfo id="flow_ns_j2.13" depart="159.00" departLane="E5_1" departPos="5.10" departSpeed="15.55" departDelay="0.28" arrival="237.00" arrivalLane="E6_1" arrivalPos="496.00" arrivalSpeed="14.85" duration="78.00" routeLength="994.90" waitingTime="0.00" waitingCount="0" stopTime="0.00" timeLoss="13.46" rerouteNo="0" devices="tripinfo_flow_ns_j2.13" vType="passenger" speedFactor="1.12" vaporized=""/>
    <tripinfo id="flow_ns_j3.13" depart="164.00" departLane="E7_1" departPos="5.10" departSpeed="13.71" departDelay="0.28" arrival="241.00" arrivalLane="E8_0" arrivalPos="496.00" arrivalSpeed="13.56" duration="77.00" routeLength="994.90" waitingTime="0.00" waitingCount="0" stopTime="0.00" timeLoss="3.81" rerouteNo="0" devices="tripinfo_flow_ns_j3.13" vType="passenger" speedFactor="0.99" vaporized=""/>
    <tripinfo id="test_vehicle_1" depart="1.00" departLane="E1_0" departPos="5.10" departSpeed="0.00" departDelay="0.00" arrival="279.00" arrivalLane="E3_0" arrivalPos="489.60" arrivalSpeed="13.93" duration="278.00" routeLength="1494.90" waitingTime="157.00" waitingCount="2" stopTime="0.00" timeLoss="175.63" rerouteNo="0" devices="tripinfo_test_vehicle_1" vType="passenger" speedFactor="1.06" vaporized=""/>
    <tripinfo id="test_vehicle_3" depart="5.00" departLane="E1_0" departPos="5.10" departSpeed="0.00" departDelay="0.00" arrival="280.00" arrivalLane="E3_1" arrivalPos="489.60" arrivalSpeed="12.84" duration="275.00" routeLength="1494.90" waitingTime="150.00" waitingCount="2" stopTime="0.00" timeLoss="168.16" rerouteNo="0" devices="tripinfo_test_vehicle_3" vType="passenger" speedFactor="1.01" vaporized=""/>
    <tripinfo id="flow_ew_j2.1" depart="24.00" departLane="E1_1" departPos="5.10" departSpeed="12.31" departDelay="0.00" arrival="290.00" arrivalLane="E3_0" arrivalPos="489.60" arrivalSpeed="11.31" duration="266.00" routeLength="1494.90" waitingTime="125.00" waitingCount="2" stopTime="0.00" timeLoss="143.74" rerouteNo="0" devices="tripinfo_flow_ew_j2.1" vType="passenger" speedFactor="0.89" vaporized=""/>
    <tripinfo id="flow_ew_j2.2" depart="33.00" departLane="E1_0" departPos="5.10" departSpeed="14.26" departDelay="0.00" arrival="291.00" arrivalLane="E3_0" arrivalPos="489.60" arrivalSpeed="13.91" duration="258.00" routeLength="1494.90" waitingTime="121.00" waitingCount="2" stopTime="0.00" timeLoss="152.95" rerouteNo="0" devices="tripinfo_flow_ew_j2.2" vType="passenger" speedFactor="1.03" vaporized=""/>
    <tripinfo id="flow_ew_j2.0" depart="15.00" departLane="E1_1" departPos="5.10" departSpeed="11.54" departDelay="0.00" arrival="292.00" arrivalLane="E3_1" arrivalPos="489.60" arrivalSpeed="10.96" duration="277.00" routeLength="1494.90" waitingTime="125.00" waitingCount="2" stopTime="0.00" timeLoss="147.33" rerouteNo="0" devices="tripinfo_flow_ew_j2.0" vType="passenger" speedFactor="0.83" vaporized=""/>
    <tripinfo id="flow_ew_j2.3" depart="42.00" departLane="E1_1" departPos="5.10" departSpeed="13.77" departDelay="0.00" arrival="296.00" arrivalLane="E3_1" arrivalPos="489.60" arrivalSpeed="12.73" duration="254.00" routeLength="1494.90" waitingTime="110.00" waitingCount="2" stopTime="0.00" timeLoss="144.68" rerouteNo="0" devices="tripinfo_flow_ew_j2.3" vType="passenger" speedFactor="0.99" vaporized=""/>
    <tripinfo id="flow_ew_j2.4" depart="51.00" departLane="E1_0" departPos="5.10" departSpeed="13.00" departDelay="0.00" arrival="297.00" arrivalLane="E3_1" arrivalPos="489.60" arrivalSpeed="12.98" duration="246.00" routeLength="1494.90" waitingTime="102.00" waitingCount="2" stopTime="0.00" timeLoss="131.05" rerouteNo="0" devices="tripinfo_flow_ew_j2.4" vType="passenger" speedFactor="0.94" vaporized=""/>
    <tripinfo id="flow_ew_j2.5" depart="60.00" departLane="E1_0" departPos="5.10" departSpeed="13.54" departDelay="0.00" arrival="297.00" arrivalLane="E3_0" arrivalPos="489.60" arrivalSpeed="12.83" duration="237.00" routeLength="1494.90" waitingTime="97.00" waitingCount="2" stopTime="0.00" timeLoss="125.93" rerouteNo="0" devices="tripinfo_flow_ew_j2.5" vType="passenger" speedFactor="0.97" vaporized=""/>
    <tripinfo id="flow_ew_j2.6" depart="69.00" departLane="E1_0" departPos="5.10" departSpeed="12.74" departDelay="0.00" arrival="299.00" arrivalLane="E3_0" arrivalPos="489.60" arrivalSpeed="11.51" duration="230.00" routeLength="1494.90" waitingTime="86.00" waitingCount="2" stopTime="0.00" timeLoss="111.98" rerouteNo="0" devices="tripinfo_flow_ew_j2.6" vType="passenger" speedFactor="0.92" vaporized=""/>
    <tripinfo id="flow_ew_j2.7" depart="78.00" departLane="E1_1" departPos="5.10" departSpeed="12.94" departDelay="0.00" arrival="301.00" arrivalLane="E3_0" arrivalPos="489.60" arrivalSpeed="12.86" duration="223.00" routeLength="1494.90" waitingTime="78.00" waitingCount="2" stopTime="0.00" timeLoss="106.60" rerouteNo="0" devices="tripinfo_flow_ew_j2.7" vType="passenger" speedFactor="0.93" vaporized=""/>
    <tripinfo id="flow_ew_j2.10" depart="105.00" departLane="E1_0" departPos="5.10" departSpeed="14.31" departDelay="0.00" arrival="304.00" arrivalLane="E3_0" arrivalPos="489.60" arrivalSpeed="14.28" duration="199.00" routeLength="1494.90" waitingTime="67.00" waitingCount="1" stopTime="0.00" timeLoss="94.09" rerouteNo="0" devices="tripinfo_flow_ew_j2.10" vType="passenger" speedFactor="1.03" vaporized=""/>
    <tripinfo id="flow_ew_j2.8" depart="87.00" departLane="E1_1" departPos="5.10" departSpeed="13.96" departDelay="0.00" arrival="305.00" arrivalLane="E3_1" arrivalPos="489.60" arrivalSpeed="13.84" duration="218.00" routeLength="1494.90" waitingTime="72.00" waitingCount="2" stopTime="0.00" timeLoss="110.53" rerouteNo="0" devices="tripinfo_flow_ew_j2.8" vType="passenger" speedFactor="1.01" vaporized=""/>
    <tripinfo id="flow_ew_j2.9" depart="96.00" departLane="E1_1" departPos="5.10" departSpeed="13.52" departDelay="0.00" arrival="307.00" arrivalLane="E3_1" arrivalPos="489.60" arrivalSpeed="13.12" duration="211.00" routeLength="1494.90" waitingTime="65.00" waitingCount="1" stopTime="0.00" timeLoss="99.76" rerouteNo="0" devices="tripinfo_flow_ew_j2.9" vType="passenger" speedFactor="0.97" vaporized=""/>
    <tripinfo id="flow_ew_j2.11" depart="114.00" departLane="E1_0" departPos="5.10" departSpeed="14.42" departDelay="0.00" arrival="309.00" arrivalLane="E3_1" arrivalPos="489.60" arrivalSpeed="13.35" duration="195.00" routeLength="1494.90" waitingTime="64.00" waitingCount="1" stopTime="0.00" timeLoss="90.48" rerouteNo="0" devices="tripinfo_flow_ew_j2.11" vType="passenger" speedFactor="1.04" vaporized=""/>
    <tripinfo id="emergency_1" depart="10.00" departLane="E1_0" departPos="6.10" departSpeed="0.00" departDelay="0.00" arrival="316.00" arrivalLane="E4_0" arrivalPos="500.00" arrivalSpeed="14.06" duration="306.00" routeLength="1994.00" waitingTime="150.00" waitingCount="2" stopTime="0.00" timeLoss="166.03" rerouteNo="0" devices="tripinfo_emergency_1" vType="emergency" speedFactor="1.03" vaporized=""/>
    <tripinfo id="flow_ew_full.0" depart="20.00" departLane="E1_0" departPos="5.10" departSpeed="14.53" departDelay="0.00" arrival="318.00" arrivalLane="E4_1" arrivalPos="500.00" arrivalSpeed="14.47" duration="298.00" routeLength="1995.00" waitingTime="138.00" waitingCount="2" stopTime="0.00" timeLoss="160.36" rerouteNo="0" devices="tripinfo_flow_ew_full.0" vType="passenger" speedFactor="1.05" vaporized=""/>
    <tripinfo id="flow_ew_full.1" depart="32.00" departLane="E1_1" departPos="5.10" departSpeed="15.15" departDelay="0.00" arrival="328.00" arrivalLane="E4_0" arrivalPos="500.00" arrivalSpeed="14.50" duration="296.00" routeLength="1995.00" waitingTime="123.00" waitingCount="2" stopTime="0.00" timeLoss="163.90" rerouteNo="0" devices="tripinfo_flow_ew_full.1" vType="passenger" speedFactor="1.09" vaporized=""/>
    <tripinfo id="flow_ew_full.2" depart="44.00" departLane="E1_0" departPos="5.10" departSpeed="12.87" departDelay="0.00" arrival="334.00" arrivalLane="E4_0" arrivalPos="500.00" arrivalSpeed="11.60" duration="290.00" routeLength="1995.00" waitingTime="107.00" waitingCount="2" stopTime="0.00" timeLoss="134.54" rerouteNo="0" devices="tripinfo_flow_ew_full.2" vType="passenger" speedFactor="0.93" vaporized=""/>
    <tripinfo id="emergency_flow.0" depart="50.00" departLane="E1_1" departPos="6.10" departSpeed="13.08" departDelay="0.00" arrival="334.00" arrivalLane="E4_1" arrivalPos="500.00" arrivalSpeed="12.83" duration="284.00" routeLength="1994.00" waitingTime="104.00" waitingCount="2" stopTime="0.00" timeLoss="131.24" rerouteNo="0" devices="tripinfo_emergency_flow.0" vType="emergency" speedFactor="0.94" vaporized=""/>
    <tripinfo id="flow_ew_full.3" depart="56.00" departLane="E1_1" departPos="5.10" departSpeed="14.14" departDelay="0.00" arrival="336.00" arrivalLane="E4_0" arrivalPos="500.00" arrivalSpeed="13.70" duration="280.00" routeLength="1995.00" waitingTime="99.00" waitingCount="2" stopTime="0.00" timeLoss="138.62" rerouteNo="0" devices="tripinfo_flow_ew_full.3" vType="passenger" speedFactor="1.02" vaporized=""/>
    <tripinfo id="flow_ew_full.5" depart="80.00" departLane="E1_0" departPos="5.10" departSpeed="16.37" departDelay="0.00" arrival="339.00" arrivalLane="E4_1" arrivalPos="500.00" arrivalSpeed="16.07" duration="259.00" routeLength="1995.00" waitingTime="81.00" waitingCount="2" stopTime="0.00" timeLoss="136.89" rerouteNo="0" devices="tripinfo_flow_ew_full.5" vType="passenger" speedFactor="1.18" vaporized=""/>
    <tripinfo id="flow_ew_full.6" depart="92.00" departLane="E1_0" departPos="5.10" departSpeed="13.82" departDelay="0.00" arrival="340.00" arrivalLane="E4_0" arrivalPos="500.00" arrivalSpeed="13.12" duration="248.00" routeLength="1995.00" waitingTime="68.00" waitingCount="2" stopTime="0.00" timeLoss="103.29" rerouteNo="0" devices="tripinfo_flow_ew_full.6" vType="passenger" speedFactor="0.99" vaporized=""/>
    <tripinfo id="flow_ns_j2.15" depart="180.00" departLane="E5_1" departPos="5.10" departSpeed="14.20" departDelay="0.71" arrival="340.00" arrivalLane="E6_0" arrivalPos="496.00" arrivalSpeed="13.61" duration="160.00" routeLength="994.90" waitingTime="81.00" waitingCount="1" stopTime="0.00" timeLoss="89.84" rerouteNo="0" devices="tripinfo_flow_ns_j2.15" vType="passenger" speedFactor="1.02" vaporized=""/>
    <tripinfo id="flow_ns_j3.15" depart="185.00" departLane="E7_1" departPos="5.10" departSpeed="14.21" departDelay="0.71" arrival="340.00" arrivalLane="E8_0" arrivalPos="496.00" arrivalSpeed="14.09" duration="155.00" routeLength="994.90" waitingTime="75.00" waitingCount="1" stopTime="0.00" timeLoss="84.54" rerouteNo="0" devices="tripinfo_flow_ns_j3.15" vType="passenger" speedFactor="1.02" vaporized=""/>
    <tripinfo id="flow_ns_j3.17" depart="205.00" departLane="E7_1" departPos="5.10" departSpeed="15.10" departDelay="0.14" arrival="340.00" arrivalLane="E8_1" arrivalPos="496.00" arrivalSpeed="14.82" duration="135.00" routeLength="994.90" waitingTime="60.00" waitingCount="1" stopTime="0.00" timeLoss="68.92" rerouteNo="0" devices="tripinfo_flow_ns_j3.17" vType="passenger" speedFactor="1.09" vaporized=""/>
    <tripinfo id="flow_ns_j3.19" depart="226.00" departLane="E7_1" departPos="5.10" departSpeed="14.48" departDelay="0.57" arrival="343.00" arrivalLane="E8_1" arrivalPos="496.00" arrivalSpeed="13.58" duration="117.00" routeLength="994.90" waitingTime="38.00" waitingCount="1" stopTime="0.00" timeLoss="48.23" rerouteNo="0" devices="tripinfo_flow_ns_j3.19" vType="passenger" speedFactor="1.04" vaporized=""/>
    <tripinfo id="flow_ns_j3.14" depart="175.00" departLane="E7_1" departPos="5.10" departSpeed="12.60" departDelay="1.00" arrival="344.00" arrivalLane="E8_0" arrivalPos="496.00" arrivalSpeed="11.70" duration="169.00" routeLength="994.90" waitingTime="82.00" waitingCount="1" stopTime="0.00" timeLoss="89.88" rerouteNo="0" devices="tripinfo_flow_ns_j3.14" vType="passenger" speedFactor="0.91" vaporized=""/>
    <tripinfo id="flow_ns_j2.17" depart="200.00" departLane="E5_1" departPos="5.10" departSpeed="13.64" departDelay="0.14" arrival="344.00" arrivalLane="E6_0" arrivalPos="496.00" arrivalSpeed="13.43" duration="144.00" routeLength="994.90" waitingTime="61.00" waitingCount="1" stopTime="0.00" timeLoss="70.47" rerouteNo="0" devices="tripinfo_flow_ns_j2.17" vType="passenger" speedFactor="0.98" vaporized=""/>
    <tripinfo id="flow_ns_j2.19" depart="221.00" departLane="E5_1" departPos="5.10" departSpeed="15.94" departDelay="0.57" arrival="344.00" arrivalLane="E6_1" arrivalPos="496.00" arrivalSpeed="15.15" duration="123.00" routeLength="994.90" waitingTime="46.00" waitingCount="1" stopTime="0.00" timeLoss="60.04" rerouteNo="0" devices="tripinfo_flow_ns_j2.19" vType="passenger" speedFactor="1.15" vaporized=""/>
    <tripinfo id="flow_ew_full.4" depart="68.00" departLane="E1_1" departPos="5.10" departSpeed="12.12" departDelay="0.00" arrival="345.00" arrivalLane="E4_0" arrivalPos="500.00" arrivalSpeed="11.41" duration="277.00" routeLength="1995.00" waitingTime="84.00" waitingCount="2" stopTime="0.00" timeLoss="112.24" rerouteNo="0" devices="tripinfo_flow_ew_full.4" vType="passenger" speedFactor="0.87" vaporized=""/>
    <tripinfo id="flow_ns_j3.21" depart="247.00" departLane="E7_1" departPos="5.10" departSpeed="15.15" departDelay="0.99" arrival="345.00" arrivalLane="E8_1" arrivalPos="496.00" arrivalSpeed="15.03" duration="98.00" routeLength="994.90" waitingTime="21.00" waitingCount="1" stopTime="0.00" timeLoss="31.85" rerouteNo="0" devices="tripinfo_flow_ns_j3.21" vType="passenger" speedFactor="1.09" vaporized=""/>
    <tripinfo id="flow_ns_j3.16" depart="195.00" departLane="E7_0" departPos="5.10" departSpeed="13.68" departDelay="0.42" arrival="346.00" arrivalLane="E8_0" arrivalPos="496.00" arrivalSpeed="13.32" duration="151.00" routeLength="994.90" waitingTime="66.00" waitingCount="1" stopTime="0.00" timeLoss="77.69" rerouteNo="0" devices="tripinfo_flow_ns_j3.16" vType="passenger" speedFactor="0.98" vaporized=""/>
    <tripinfo id="flow_ns_j2.14" depart="170.00" departLane="E5_0" departPos="5.10" departSpeed="12.26" departDelay="1.00" arrival="347.00" arrivalLane="E6_0" arrivalPos="496.00" arrivalSpeed="11.89" duration="177.00" routeLength="994.90" waitingTime="86.00" waitingCount="1" stopTime="0.00" timeLoss="95.06" rerouteNo="0" devices="tripinfo_flow_ns_j2.14" vType="passenger" speedFactor="0.88" vaporized=""/>
    <tripinfo id="flow_ns_j2.16" depart="190.00" departLane="E5_0" departPos="5.10" departSpeed="14.66" departDelay="0.42" arrival="347.00" arrivalLane="E6_1" arrivalPos="496.00" arrivalSpeed="13.51" duration="157.00" routeLength="994.90" waitingTime="73.00" waitingCount="1" stopTime="0.00" timeLoss="88.61" rerouteNo="0" devices="tripinfo_flow_ns_j2.16" vType="passenger" speedFactor="1.06" vaporized=""/>
    <tripinfo id="flow_ns_j3.18" depart="216.00" departLane="E7_0" departPos="5.10" departSpeed="13.43" departDelay="0.85" arrival="347.00" arrivalLane="E8_1" arrivalPos="496.00" arrivalSpeed="13.40" duration="131.00" routeLength="994.90" waitingTime="46.00" waitingCount="1" stopTime="0.00" timeLoss="56.86" rerouteNo="0" devices="tripinfo_flow_ns_j3.18" vType="passenger" speedFactor="0.97" vaporized=""/>
    <tripinfo id="flow_ns_j2.18" depart="211.00" departLane="E5_1" departPos="5.10" departSpeed="14.37" departDelay="0.85" arrival="349.00" arrivalLane="E6_0" arrivalPos="496.00" arrivalSpeed="13.77" duration="138.00" routeLength="994.90" waitingTime="53.00" waitingCount="1" stopTime="0.00" timeLoss="67.85" rerouteNo="0" devices="tripinfo_flow_ns_j2.18" vType="passenger" speedFactor="1.03" vaporized=""/>
    <tripinfo id="flow_ew_full.7" depart="104.00" departLane="E1_1" departPos="5.10" departSpeed="12.51" departDelay="0.00" arrival="350.00" arrivalLane="E4_0" arrivalPos="500.00" arrivalSpeed="11.93" duration="246.00" routeLength="1995.00" waitingTime="66.00" waitingCount="1" stopTime="0.00" timeLoss="85.69" rerouteNo="0" devices="tripinfo_flow_ew_full.7" vType="passenger" speedFactor="0.90" vaporized=""/>
    <tripinfo id="flow_ns_j2.20" depart="231.00" departLane="E5_0" departPos="5.10" departSpeed="14.20" departDelay="0.28" arrival="350.00" arrivalLane="E6_0" arrivalPos="496.00" arrivalSpeed="13.66" duration="119.00" routeLength="994.90" waitingTime="33.00" waitingCount="1" stopTime="0.00" timeLoss="48.79" rerouteNo="0" devices="tripinfo_flow_ns_j2.20" vType="passenger" speedFactor="1.02" vaporized=""/>
    <tripinfo id="flow_ns_j2.21" depart="242.00" departLane="E5_1" departPos="5.10" departSpeed="12.80" departDelay="0.99" arrival="350.00" arrivalLane="E6_1" arrivalPos="496.00" arrivalSpeed="12.28" duration="108.00" routeLength="994.90" waitingTime="19.00" waitingCount="1" stopTime="0.00" timeLoss="30.00" rerouteNo="0" devices="tripinfo_flow_ns_j2.21" vType="passenger" speedFactor="0.92" vaporized=""/>