<?xml version="1.0" encoding="UTF-8"?>

<!-- generated on 2025-10-26 22:42:49 by Eclipse SUMO GUI Version 1.24.0
<sumoConfiguration xmlns:xsi="http://www.w3.org/2001/XMLSchema-instance" xsi:noNamespaceSchemaLocation="http://sumo.dlr.de/xsd/sumoConfiguration.xsd">

    <input>
        <net-file value="C:\Users\vishe\OneDrive\Desktop\vanet\vanet_final_v3\sumo_simulation\maps/simple_network.net.xml"/>
        <route-files value="C:\Users\vishe\OneDrive\Desktop\vanet\vanet_final_v3\sumo_simulation\maps/routes.rou.xml"/>
    </input>

    <output>
        <summary-output value="C:\Users\vishe\OneDrive\Desktop\vanet\vanet_final_v3\sumo_simulation\output/summary.xml"/>
        <tripinfo-output value="C:\Users\vishe\OneDrive\Desktop\vanet\vanet_final_v3\sumo_simulation\output/tripinfo.xml"/>
    </output>

    <time>
        <begin value="0"/>
        <end value="3600"/>
        <step-length value="1"/>
    </time>

    <processing>
        <time-to-teleport value="300"/>
    </processing>

    <traci_server>
        <remote-port value="60927"/>
    </traci_server>

    <gui_only>
        <gui-settings-file value="C:\Users\vishe\OneDrive\Desktop\vanet\vanet_final_v3\sumo_simulation\maps/gui-settings.cfg"/>
        <quit-on-end value="false"/>
        <start value="true"/>
    </gui_only>

</sumoConfiguration>
-->

<tripinfos xmlns:xsi="http://www.w3.org/2001/XMLSchema-instance" xsi:noNamespaceSchemaLocation="http://sumo.dlr.de/xsd/tripinfo_file.xsd">
    <tripinfo id="test_vehicle_4" depart="7.00" departLane="E7_0" departPos="5.10" departSpeed="0.00" departDelay="0.00" arrival="93.00" arrivalLane="E8_0" arrivalPos="496.00" arrivalSpeed="14.74" duration="86.00" routeLength="994.90" waitingTime="7.00" waitingCount="1" stopTime="0.00" timeLoss="19.36" rerouteNo="0" devices="tripinfo_test_vehicle_4" vType="passenger" speedFactor="1.08" vaporized=""/>
    <tripinfo id="test_vehicle_2" depart="3.00" departLane="E5_0" departPos="5.10" departSpeed="0.00" departDelay="0.00" arrival="98.00" arrivalLane="E6_0" arrivalPos="496.00" arrivalSpeed="12.44" duration="95.00" routeLength="994.90" waitingTime="8.00" waitingCount="1" stopTime="0.00" timeLoss="18.11" rerouteNo="0" devices="tripinfo_test_vehicle_2" vType="passenger" speedFactor="0.94" vaporized=""/>
    <tripinfo id="flow_ns_j3.1" depart="41.00" departLane="E7_1" departPos="5.10" departSpeed="15.60" departDelay="0.71" arrival="110.00" arrivalLane="E8_0" arrivalPos="496.00" arrivalSpeed="15.13" duration="69.00" routeLength="994.90" waitingTime="0.00" waitingCount="0" stopTime="0.00" timeLoss="4.70" rerouteNo="0" devices="tripinfo_flow_ns_j3.1" vType="passenger" speedFactor="1.12" vaporized=""/>
    <tripinfo id="flow_ns_j2.1" depart="36.00" departLane="E5_1" departPos="5.10" departSpeed="14.54" departDelay="0.71" arrival="114.00" arrivalLane="E6_0" arrivalPos="496.00" arrivalSpeed="13.73" duration="78.00" routeLength="994.90" waitingTime="1.00" waitingCount="1" stopTime="0.00" timeLoss="9.56" rerouteNo="0" devices="tripinfo_flow_ns_j2.1" vType="passenger" speedFactor="1.05" vaporized=""/>
    <tripinfo id="flow_ns_j2.0" depart="25.00" departLane="E5_1" departPos="5.10" departSpeed="13.03" departDelay="0.00" arrival="119.00" arrivalLane="E6_0" arrivalPos="496.00" arrivalSpeed="13.02" duration="94.00" routeLength="994.90" waitingTime="8.00" waitingCount="1" stopTime="0.00" timeLoss="16.90" rerouteNo="0" devices="tripinfo_flow_ns_j2.0" vType="passenger" speedFactor="0.94" vaporized=""/>
    <tripinfo id="flow_ns_j3.0" depart="30.00" departLane="E7_1" departPos="5.10" departSpeed="11.90" departDelay="0.00" arrival="121.00" arrivalLane="E8_0" arrivalPos="496.00" arrivalSpeed="10.83" duration="91.00" routeLength="994.90" waitingTime="0.00" waitingCount="0" stopTime="0.00" timeLoss="6.92" rerouteNo="0" devices="tripinfo_flow_ns_j3.0" vType="passenger" speedFactor="0.86" vaporized=""/>
    <tripinfo id="test_vehicle_1" depart="1.00" departLane="E1_0" departPos="5.10" departSpeed="0.00" departDelay="0.00" arrival="122.00" arrivalLane="E3_0" arrivalPos="489.60" arrivalSpeed="14.63" duration="121.00" routeLength="1494.90" waitingTime="3.00" waitingCount="1" stopTime="0.00" timeLoss="18.59" rerouteNo="0" devices="tripinfo_test_vehicle_1" vType="passenger" speedFactor="1.06" vaporized=""/>
    <tripinfo id="test_vehicle_3" depart="5.00" departLane="E1_0" departPos="5.10" departSpeed="0.00" departDelay="0.00" arrival="125.00" arrivalLane="E3_0" arrivalPos="489.60" arrivalSpeed="13.47" duration="120.00" routeLength="1494.90" waitingTime="0.00" waitingCount="0" stopTime="0.00" timeLoss="13.06" rerouteNo="0" devices="tripinfo_test_vehicle_3" vType="passenger" speedFactor="1.01" vaporized=""/>
    <tripinfo id="flow_ns_j3.2" depart="51.00" departLane="E7_0" departPos="5.10" departSpeed="16.09" departDelay="0.43" arrival="131.00" arrivalLane="E8_0" arrivalPos="496.00" arrivalSpeed="15.40" duration="80.00" routeLength="994.90" waitingTime="10.00" waitingCount="1" stopTime="0.00" timeLoss="17.56" rerouteNo="0" devices="tripinfo_flow_ns_j3.2" vType="passenger" speedFactor="1.16" vaporized=""/>
    <tripinfo id="flow_ns_j2.3" depart="56.00" departLane="E5_1" departPos="5.10" departSpeed="14.03" departDelay="0.14" arrival="136.00" arrivalLane="E6_0" arrivalPos="496.00" arrivalSpeed="13.46" duration="80.00" routeLength="994.90" waitingTime="0.00" waitingCount="0" stopTime="0.00" timeLoss="8.56" rerouteNo="0" devices="tripinfo_flow_ns_j2.3" vType="passenger" speedFactor="1.01" vaporized=""/>
    <tripinfo id="flow_ns_j2.2" depart="46.00" departLane="E5_1" departPos="5.10" departSpeed="12.20" departDelay="0.43" arrival="141.00" arrivalLane="E6_0" arrivalPos="496.00" arrivalSpeed="12.08" duration="95.00" routeLength="994.90" waitingTime="5.00" waitingCount="1" stopTime="0.00" timeLoss="13.25" rerouteNo="0" devices="tripinfo_flow_ns_j2.2" vType="passenger" speedFactor="0.88" vaporized=""/>
    <tripinfo id="flow_ns_j2.5" depart="77.00" departLane="E5_1" departPos="5.10" departSpeed="15.72" departDelay="0.57" arrival="151.00" arrivalLane="E6_0" arrivalPos="496.00" arrivalSpeed="14.96" duration="74.00" routeLength="994.90" waitingTime="1.00" waitingCount="1" stopTime="0.00" timeLoss="10.61" rerouteNo="0" devices="tripinfo_flow_ns_j2.5" vType="passenger" speedFactor="1.13" vaporized=""/>
    <tripinfo id="flow_ns_j2.6" depart="87.00" departLane="E5_0" departPos="5.10" departSpeed="16.28" departDelay="0.28" arrival="152.00" arrivalLane="E6_1" arrivalPos="496.00" arrivalSpeed="15.82" duration="65.00" routeLength="994.90" waitingTime="0.00" waitingCount="0" stopTime="0.00" timeLoss="3.34" rerouteNo="0" devices="tripinfo_flow_ns_j2.6" vType="passenger" speedFactor="1.17" vaporized=""/>
    <tripinfo id="flow_ns_j3.5" depart="82.00" departLane="E7_1" departPos="5.10" departSpeed="16.03" departDelay="0.57" arrival="155.00" arrivalLane="E8_0" arrivalPos="496.00" arrivalSpeed="15.99" duration="73.00" routeLength="994.90" waitingTime="0.00" waitingCount="0" stopTime="0.00" timeLoss="10.03" rerouteNo="0" devices="tripinfo_flow_ns_j3.5" vType="passenger" speedFactor="1.15" vaporized=""/>
    <tripinfo id="flow_ns_j3.4" depart="72.00" departLane="E7_1" departPos="5.10" departSpeed="13.18" departDelay="0.86" arrival="158.00" arrivalLane="E8_0" arrivalPos="496.00" arrivalSpeed="12.02" duration="86.00" routeLength="994.90" waitingTime="0.00" waitingCount="0" stopTime="0.00" timeLoss="9.75" rerouteNo="0" devices="tripinfo_flow_ns_j3.4" vType="passenger" speedFactor="0.95" vaporized=""/>
    <tripinfo id="emergency_1" depart="10.00" departLane="E1_0" departPos="6.10" departSpeed="0.00" departDelay="0.00" arrival="160.00" arrivalLane="E4_0" arrivalPos="500.00" arrivalSpeed="14.28" duration="150.00" routeLength="1994.00" waitingTime="0.00" waitingCount="0" stopTime="0.00" timeLoss="10.14" rerouteNo="0" devices="tripinfo_emergency_1" vType="emergency" speedFactor="1.03" vaporized=""/>
    <tripinfo id="flow_ns_j3.3" depart="61.00" departLane="E7_1" departPos="5.10" departSpeed="12.36" departDelay="0.14" arrival="161.00" arrivalLane="E8_0" arrivalPos="496.00" arrivalSpeed="11.16" duration="100.00" routeLength="994.90" waitingTime="9.00" waitingCount="1" stopTime="0.00" timeLoss="19.16" rerouteNo="0" devices="tripinfo_flow_ns_j3.3" vType="passenger" speedFactor="0.89" vaporized=""/>
    <tripinfo id="flow_ns_j2.4" depart="67.00" departLane="E5_0" departPos="5.10" departSpeed="11.47" departDelay="0.86" arrival="164.00" arrivalLane="E6_0" arrivalPos="496.00" arrivalSpeed="10.56" duration="97.00" routeLength="994.90" waitingTime="0.00" waitingCount="0" stopTime="0.00" timeLoss="10.14" rerouteNo="0" devices="tripinfo_flow_ns_j2.4" vType="passenger" speedFactor="0.83" vaporized=""/>
    <tripinfo id="flow_ew_j2.3" depart="42.00" departLane="E1_1" departPos="5.10" departSpeed="13.77" departDelay="0.00" arrival="169.00" arrivalLane="E3_1" arrivalPos="489.60" arrivalSpeed="12.90" duration="127.00" routeLength="1494.90" waitingTime="1.00" waitingCount="1" stopTime="0.00" timeLoss="18.10" rerouteNo="0" devices="tripinfo_flow_ew_j2.3" vType="passenger" speedFactor="0.99" vaporized=""/>
    <tripinfo id="flow_ew_j2.1" depart="24.00" departLane="E1_1" departPos="5.10" departSpeed="12.31" departDelay="0.00" arrival="170.00" arrivalLane="E3_0" arrivalPos="489.60" arrivalSpeed="11.35" duration="146.00" routeLength="1494.90" waitingTime="9.00" waitingCount="1" stopTime="0.00" timeLoss="24.18" rerouteNo="0" devices="tripinfo_flow_ew_j2.1" vType="passenger" speedFactor="0.89" vaporized=""/>
    <tripinfo id="flow_ew_j2.2" depart="33.00" departLane="E1_0" departPos="5.10" departSpeed="14.26" departDelay="0.00" arrival="171.00" arrivalLane="E3_1" arrivalPos="489.60" arrivalSpeed="14.24" duration="138.00" routeLength="1494.90" waitingTime="12.00" waitingCount="1" stopTime="0.00" timeLoss="32.48" rerouteNo="0" devices="tripinfo_flow_ew_j2.2" vType="passenger" speedFactor="1.03" vaporized=""/>
    <tripinfo id="flow_ns_j2.7" depart="98.00" departLane="E5_1" departPos="5.10" departSpeed="16.39" departDelay="1.00" arrival="171.00" arrivalLane="E6_0" arrivalPos="496.00" arrivalSpeed="15.64" duration="73.00" routeLength="994.90" waitingTime="3.00" waitingCount="1" stopTime="0.00" timeLoss="11.87" rerouteNo="0" devices="tripinfo_flow_ns_j2.7" vType="passenger" speedFactor="1.18" vaporized=""/>
    <tripinfo id="flow_ns_j3.7" depart="103.00" departLane="E7_1" departPos="5.10" departSpeed="15.31" departDelay="1.00" arrival="172.00" arrivalLane="E8_0" arrivalPos="496.00" arrivalSpeed="14.71" duration="69.00" routeLength="994.90" waitingTime="0.00" waitingCount="0" stopTime="0.00" timeLoss="3.39" rerouteNo="0" devices="tripinfo_flow_ns_j3.7" vType="passenger" speedFactor="1.10" vaporized=""/>
    <tripinfo id="flow_ew_j2.0" depart="15.00" departLane="E1_1" departPos="5.10" departSpeed="11.54" departDelay="0.00" arrival="173.00" arrivalLane="E3_0" arrivalPos="489.60" arrivalSpeed="11.48" duration="158.00" routeLength="1494.90" waitingTime="12.00" waitingCount="2" stopTime="0.00" timeLoss="27.93" rerouteNo="0" devices="tripinfo_flow_ew_j2.0" vType="passenger" speedFactor="0.83" vaporized=""/>
    <tripinfo id="flow_ew_full.1" depart="32.00" departLane="E1_1" departPos="5.10" departSpeed="15.15" departDelay="0.00" arrival="175.00" arrivalLane="E4_0" arrivalPos="500.00" arrivalSpeed="15.07" duration="143.00" routeLength="1995.00" waitingTime="0.00" waitingCount="0" stopTime="0.00" timeLoss="10.86" rerouteNo="0" devices="tripinfo_flow_ew_full.1" vType="passenger" speedFactor="1.09" vaporized=""/>
    <tripinfo id="flow_ns_j3.6" depart="92.00" departLane="E7_0" departPos="5.10" departSpeed="14.16" departDelay="0.28" arrival="175.00" arrivalLane="E8_0" arrivalPos="496.00" arrivalSpeed="12.94" duration="83.00" routeLength="994.90" waitingTime="5.00" waitingCount="1" stopTime="0.00" timeLoss="12.75" rerouteNo="0" devices="tripinfo_flow_ns_j3.6" vType="passenger" speedFactor="1.02" vaporized=""/>
    <tripinfo id="flow_ew_full.0" depart="20.00" departLane="E1_0" departPos="5.10" departSpeed="14.53" departDelay="0.00" arrival="179.00" arrivalLane="E4_0" arrivalPos="500.00" arrivalSpeed="13.92" duration="159.00" routeLength="1995.00" waitingTime="6.00" waitingCount="1" stopTime="0.00" timeLoss="21.13" rerouteNo="0" devices="tripinfo_flow_ew_full.0" vType="passenger" speedFactor="1.05" vaporized=""/>
    <tripinfo id="flow_ew_j2.5" depart="60.00" departLane="E1_0" departPos="5.10" departSpeed="13.54" departDelay="0.00" arrival="190.00" arrivalLane="E3_1" arrivalPos="489.60" arrivalSpeed="13.19" duration="130.00" routeLength="1494.90" waitingTime="5.00" waitingCount="1" stopTime="0.00" timeLoss="19.13" rerouteNo="0" devices="tripinfo_flow_ew_j2.5" vType="passenger" speedFactor="0.97" vaporized=""/>
    <tripinfo id="flow_ns_j3.8" depart="113.00" departLane="E7_1" departPos="5.10" departSpeed="15.17" departDelay="0.71" arrival="193.00" arrivalLane="E8_0" arrivalPos="496.00" arrivalSpeed="14.69" duration="80.00" routeLength="994.90" waitingTime="4.00" waitingCount="1" stopTime="0.00" timeLoss="13.80" rerouteNo="0" devices="tripinfo_flow_ns_j3.8" vType="passenger" speedFactor="1.09" vaporized=""/>
    <tripinfo id="flow_ns_j2.9" depart="118.00" departLane="E5_1" departPos="5.10" departSpeed="15.11" departDelay="0.43" arrival="193.00" arrivalLane="E6_0" arrivalPos="496.00" arrivalSpeed="14.13" duration="75.00" routeLength="994.90" waitingTime="1.00" waitingCount="1" stopTime="0.00" timeLoss="8.94" rerouteNo="0" devices="tripinfo_flow_ns_j2.9" vType="passenger" speedFactor="1.09" vaporized=""/>
    <tripinfo id="flow_ns_j2.8" depart="108.00" departLane="E5_0" departPos="5.10" departSpeed="13.29" departDelay="0.71" arrival="198.00" arrivalLane="E6_0" arrivalPos="496.00" arrivalSpeed="12.81" duration="90.00" routeLength="994.90" waitingTime="5.00" waitingCount="1" stopTime="0.00" timeLoss="14.45" rerouteNo="0" devices="tripinfo_flow_ns_j2.8" vType="passenger" speedFactor="0.96" vaporized=""/>
    <tripinfo id="flow_ew_j2.4" depart="51.00" departLane="E1_0" departPos="5.10" departSpeed="13.00" departDelay="0.00" arrival="208.00" arrivalLane="E3_0" arrivalPos="489.60" arrivalSpeed="11.82" duration="157.00" routeLength="1494.90" waitingTime="23.00" waitingCount="2" stopTime="0.00" timeLoss="41.21" rerouteNo="0" devices="tripinfo_flow_ew_j2.4" vType="passenger" speedFactor="0.94" vaporized=""/>
    <tripinfo id="flow_ew_j2.6" depart="69.00" departLane="E1_0" departPos="5.10" departSpeed="12.74" departDelay="0.00" arrival="210.00" arrivalLane="E3_1" arrivalPos="489.60" arrivalSpeed="12.52" duration="141.00" routeLength="1494.90" waitingTime="12.00" waitingCount="1" stopTime="0.00" timeLoss="23.36" rerouteNo="0" devices="tripinfo_flow_ew_j2.6" vType="passenger" speedFactor="0.92" vaporized=""/>
    <tripinfo id="flow_ns_j3.10" depart="133.00" departLane="E7_1" departPos="5.10" departSpeed="16.24" departDelay="0.14" arrival="211.00" arrivalLane="E8_0" arrivalPos="496.00" arrivalSpeed="15.71" duration="78.00" routeLength="994.90" waitingTime="7.00" waitingCount="1" stopTime="0.00" timeLoss="15.89" rerouteNo="0" devices="tripinfo_flow_ns_j3.10" vType="passenger" speedFactor="1.17" vaporized=""/>
    <tripinfo id="flow_ns_j2.11" depart="139.00" departLane="E5_1" departPos="5.10" departSpeed="14.12" departDelay="0.85" arrival="213.00" arrivalLane="E6_0" arrivalPos="496.00" arrivalSpeed="13.02" duration="74.00" routeLength="994.90" waitingTime="0.00" waitingCount="0" stopTime="0.00" timeLoss="3.43" rerouteNo="0" devices="tripinfo_flow_ns_j2.11" vType="passenger" speedFactor="1.02" vaporized=""/>
    <tripinfo id="flow_ns_j3.9" depart="123.00" departLane="E7_1" departPos="5.10" departSpeed="12.51" departDelay="0.43" arrival="221.00" arrivalLane="E8_0" arrivalPos="496.00" arrivalSpeed="12.30" duration="98.00" routeLength="994.90" waitingTime="6.00" waitingCount="1" stopTime="0.00" timeLoss="17.59" rerouteNo="0" devices="tripinfo_flow_ns_j3.9" vType="passenger" speedFactor="0.90" vaporized=""/>
    <tripinfo id="flow_ns_j2.10" depart="128.00" departLane="E5_0" departPos="5.10" departSpeed="11.81" departDelay="0.14" arrival="223.00" arrivalLane="E6_0" arrivalPos="496.00" arrivalSpeed="10.64" duration="95.00" routeLength="994.90" waitingTime="0.00" waitingCount="0" stopTime="0.00" timeLoss="10.23" rerouteNo="0" devices="tripinfo_flow_ns_j2.10" vType="passenger" speedFactor="0.85" vaporized=""/>
    <tripinfo id="emergency_flow.0" depart="50.00" departLane="E1_1" departPos="6.10" departSpeed="13.08" departDelay="0.00" arrival="225.00" arrivalLane="E4_0" arrivalPos="500.00" arrivalSpeed="12.89" duration="175.00" routeLength="1994.00" waitingTime="13.00" waitingCount="1" stopTime="0.00" timeLoss="22.19" rerouteNo="0" devices="tripinfo_emergency_flow.0" vType="emergency" speedFactor="0.94" vaporized=""/>
    <tripinfo id="flow_ew_full.3" depart="56.00" departLane="E1_1" departPos="5.10" departSpeed="14.14" departDelay="0.00" arrival="226.00" arrivalLane="E4_1" arrivalPos="500.00" arrivalSpeed="13.90" duration="170.00" routeLength="1995.00" waitingTime="9.00" waitingCount="1" stopTime="0.00" timeLoss="28.73" rerouteNo="0" devices="tripinfo_flow_ew_full.3" vType="passenger" speedFactor="1.02" vaporized=""/>
    <tripinfo id="flow_ew_j2.7" depart="78.00" departLane="E1_1" departPos="5.10" departSpeed="12.94" departDelay="0.00" arrival="228.00" arrivalLane="E3_0" arrivalPos="489.60" arrivalSpeed="11.78" duration="150.00" routeLength="1494.90" waitingTime="15.00" waitingCount="2" stopTime="0.00" timeLoss="34.42" rerouteNo="0" devices="tripinfo_flow_ew_j2.7" vType="passenger" speedFactor="0.93" vaporized=""/>
    <tripinfo id="flow_ew_full.2" depart="44.00" departLane="E1_0" departPos="5.10" departSpeed="12.87" departDelay="0.00" arrival="230.00" arrivalLane="E4_0" arrivalPos="500.00" arrivalSpeed="11.83" duration="186.00" routeLength="1995.00" waitingTime="11.00" waitingCount="1" stopTime="0.00" timeLoss="30.13" rerouteNo="0" devices="tripinfo_flow_ew_full.2" vType="passenger" speedFactor="0.93" vaporized=""/>
    <tripinfo id="flow_ew_j2.8" depart="87.00" departLane="E1_1" departPos="5.10" departSpeed="13.96" departDelay="0.00" arrival="231.00" arrivalLane="E3_1" arrivalPos="489.60" arrivalSpeed="12.91" duration="144.00" routeLength="1494.90" waitingTime="13.00" waitingCount="2" stopTime="0.00" timeLoss="36.37" rerouteNo="0" devices="tripinfo_flow_ew_j2.8" vType="passenger" speedFactor="1.01" vaporized=""/>
    <tripinfo id="flow_ns_j2.13" depart="159.00" departLane="E5_1" departPos="5.10" departSpeed="15.55" departDelay="0.28" arrival="232.00" arrivalLane="E6_0" arrivalPos="496.00" arrivalSpeed="14.29" duration="73.00" routeLength="994.90" waitingTime="1.00" waitingCount="1" stopTime="0.00" timeLoss="8.71" rerouteNo="0" devices="tripinfo_flow_ns_j2.13" vType="passenger" speedFactor="1.12" vaporized=""/>
    <tripinfo id="flow_ns_j3.11" depart="144.00" departLane="E7_0" departPos="5.10" departSpeed="13.83" departDelay="0.85" arrival="236.00" arrivalLane="E8_0" arrivalPos="496.00" arrivalSpeed="13.13" duration="92.00" routeLength="994.90" waitingTime="11.00" waitingCount="1" stopTime="0.00" timeLoss="19.57" rerouteNo="0" devices="tripinfo_flow_ns_j3.11" vType="passenger" speedFactor="1.00" vaporized=""/>
    <tripinfo id="flow_ns_j3.12" depart="154.00" departLane="E7_1" departPos="5.10" departSpeed="13.47" departDelay="0.57" arrival="237.00" arrivalLane="E8_0" arrivalPos="496.00" arrivalSpeed="12.58" duration="83.00" routeLength="994.90" waitingTime="0.00" waitingCount="0" stopTime="0.00" timeLoss="8.48" rerouteNo="0" devices="tripinfo_flow_ns_j3.12" vType="passenger" speedFactor="0.97" vaporized=""/>
    <tripinfo id="flow_ns_j2.12" depart="149.00" departLane="E5_0" departPos="5.10" departSpeed="12.49" departDelay="0.57" arrival="240.00" arrivalLane="E6_0" arrivalPos="496.00" arrivalSpeed="12.22" duration="91.00" routeLength="994.90" waitingTime="0.00" waitingCount="0" stopTime="0.00" timeLoss="11.04" rerouteNo="0" devices="tripinfo_flow_ns_j2.12" vType="passenger" speedFactor="0.90" vaporized=""/>
    <tripinfo id="flow_ew_full.5" depart="80.00" departLane="E1_0" departPos="5.10" departSpeed="16.37" departDelay="0.00" arrival="241.00" arrivalLane="E4_0" arrivalPos="500.00" arrivalSpeed="15.98" duration="161.00" routeLength="1995.00" waitingTime="9.00" waitingCount="1" stopTime="0.00" timeLoss="38.56" rerouteNo="0" devices="tripinfo_flow_ew_full.5" vType="passenger" speedFactor="1.18" vaporized=""/>
    <tripinfo id="flow_ew_j2.10" depart="105.00" departLane="E1_0" departPos="5.10" departSpeed="14.31" departDelay="0.00" arrival="245.00" arrivalLane="E3_0" arrivalPos="489.60" arrivalSpeed="13.24" duration="140.00" routeLength="1494.90" waitingTime="15.00" waitingCount="2" stopTime="0.00" timeLoss="34.77" rerouteNo="0" devices="tripinfo_flow_ew_j2.10" vType="passenger" speedFactor="1.03" vaporized=""/>
    <tripinfo id="flow_ew_j2.11" depart="114.00" departLane="E1_0" departPos="5.10" departSpeed="14.42" departDelay="0.00" arrival="246.00" arrivalLane="E3_1" arrivalPos="489.60" arrivalSpeed="13.39" duration="132.00" routeLength="1494.90" waitingTime="12.00" waitingCount="1" stopTime="0.00" timeLoss="27.98" rerouteNo="0" devices="tripinfo_flow_ew_j2.11" vType="passenger" speedFactor="1.04" vaporized=""/>
    <tripinfo id="flow_ew_j2.9" depart="96.00" departLane="E1_1" departPos="5.10" departSpeed="13.52" departDelay="0.00" arrival="247.00" arrivalLane="E3_0" arrivalPos="489.60" arrivalSpeed="12.83" duration="151.00" routeLength="1494.90" waitingTime="20.00" waitingCount="2" stopTime="0.00" timeLoss="40.15" rerouteNo="0" devices="tripinfo_flow_ew_j2.9" vType="passenger" speedFactor="0.97" vaporized=""/>
    <tripinfo id="flow_ns_j2.15" depart="180.00" departLane="E5_1" departPos="5.10" departSpeed="14.20" departDelay="0.71" arrival="254.00" arrivalLane="E6_0" arrivalPos="496.00" arrivalSpeed="13.74" duration="74.00" routeLength="994.90" waitingTime="0.00" waitingCount="0" stopTime="0.00" timeLoss="3.28" rerouteNo="0" devices="tripinfo_flow_ns_j2.15" vType="passenger" speedFactor="1.02" vaporized=""/>
    <tripinfo id="flow_ns_j3.13" depart="164.00" departLane="E7_1" departPos="5.10" departSpeed="13.71" departDelay="0.28" arrival="256.00" arrivalLane="E8_0" arrivalPos="496.00" arrivalSpeed="12.57" duration="92.00" routeLength="994.90" waitingTime="11.00" waitingCount="1" stopTime="0.00" timeLoss="19.18" rerouteNo="0" devices="tripinfo_flow_ns_j3.13" vType="passenger" speedFactor="0.99" vaporized=""/>
    <tripinfo id="flow_ns_j3.14" depart="175.00" departLane="E7_1" departPos="5.10" departSpeed="12.60" departDelay="1.00" arrival="259.00" arrivalLane="E8_0" arrivalPos="496.00" arrivalSpeed="11.70" duration="84.00" routeLength="994.90" waitingTime="0.00" waitingCount="0" stopTime="0.00" timeLoss="4.74" rerouteNo="0" devices="tripinfo_flow_ns_j3.14" vType="passenger" speedFactor="0.91" vaporized=""/>
    <tripinfo id="flow_ns_j2.14" depart="170.00" departLane="E5_0" departPos="5.10" departSpeed="12.26" departDelay="1.00" arrival="261.00" arrivalLane="E6_0" arrivalPos="496.00" arrivalSpeed="10.96" duration="91.00" routeLength="994.90" waitingTime="1.00" waitingCount="1" stopTime="0.00" timeLoss="9.06" rerouteNo="0" devices="tripinfo_flow_ns_j2.14" vType="passenger" speedFactor="0.88" vaporized=""/>
    <tripinfo id="flow_ew_j2.12" depart="123.00" departLane="E1_0" departPos="5.10" departSpeed="13.85" departDelay="0.00" arrival="266.00" arrivalLane="E3_0" arrivalPos="489.60" arrivalSpeed="12.67" duration="143.00" routeLength="1494.90" waitingTime="13.00" waitingCount="2" stopTime="0.00" timeLoss="34.90" rerouteNo="0" devices="tripinfo_flow_ew_j2.12" vType="passenger" speedFactor="1.00" vaporized=""/>
    <tripinfo id="flow_ew_full.6" depart="92.00" departLane="E1_0" departPos="5.10" departSpeed="13.82" departDelay="0.00" arrival="267.00" arrivalLane="E4_0" arrivalPos="500.00" arrivalSpeed="13.31" duration="175.00" routeLength="1995.00" waitingTime="11.00" waitingCount="1" stopTime="0.00" timeLoss="30.22" rerouteNo="0" devices="tripinfo_flow_ew_full.6" vType="passenger" speedFactor="0.99" vaporized=""/>
    <tripinfo id="flow_ns_j2.16" depart="190.00" departLane="E5_0" departPos="5.10" departSpeed="14.66" departDelay="0.42" arrival="274.00" arrivalLane="E6_0" arrivalPos="496.00" arrivalSpeed="13.70" duration="84.00" routeLength="994.90" waitingTime="6.00" waitingCount="1" stopTime="0.00" timeLoss="15.52" rerouteNo="0" devices="tripinfo_flow_ns_j2.16" vType="passenger" speedFactor="1.06" vaporized=""/>
    <tripinfo id="flow_ew_full.4" depart="68.00" departLane="E1_1" departPos="5.10" departSpeed="12.12" departDelay="0.00" arrival="275.00" arrivalLane="E4_0" arrivalPos="500.00" arrivalSpeed="11.84" duration="207.00" routeLength="1995.00" waitingTime="23.00" waitingCount="2" stopTime="0.00" timeLoss="41.87" rerouteNo="0" devices="tripinfo_flow_ew_full.4" vType="passenger" speedFactor="0.87" vaporized=""/>
    <tripinfo id="flow_ns_j3.15" depart="185.00" departLane="E7_1" departPos="5.10" departSpeed="14.21" departDelay="0.71" arrival="276.00" arrivalLane="E8_0" arrivalPos="496.00" arrivalSpeed="13.72" duration="91.00" routeLength="994.90" waitingTime="9.00" waitingCount="1" stopTime="0.00" timeLoss="20.16" rerouteNo="0" devices="tripinfo_flow_ns_j3.15" vType="passenger" speedFactor="1.02" vaporized=""/>
    <tripinfo id="flow_ns_j3.16" depart="195.00" departLane="E7_0" departPos="5.10" departSpeed="13.68" departDelay="0.42" arrival="276.00" arrivalLane="E8_1" arrivalPos="496.00" arrivalSpeed="12.64" duration="81.00" routeLength="994.90" waitingTime="0.00" waitingCount="0" stopTime="0.00" timeLoss="7.68" rerouteNo="0" devices="tripinfo_flow_ns_j3.16" vType="passenger" speedFactor="0.98" vaporized=""/>
    <tripinfo id="flow_ns_j2.17" depart="200.00" departLane="E5_1" departPos="5.10" departSpeed="13.64" departDelay="0.14" arrival="277.00" arrivalLane="E6_0" arrivalPos="496.00" arrivalSpeed="13.23" duration="77.00" routeLength="994.90" waitingTime="0.00" waitingCount="0" stopTime="0.00" timeLoss="3.90" rerouteNo="0" devices="tripinfo_flow_ns_j2.17" vType="passenger" speedFactor="0.98" vaporized=""/>
    <tripinfo id="flow_ns_j3.17" depart="205.00" departLane="E7_1" departPos="5.10" departSpeed="15.10" departDelay="0.14" arrival="278.00" arrivalLane="E8_1" arrivalPos="496.00" arrivalSpeed="14.44" duration="73.00" routeLength="994.90" waitingTime="0.00" waitingCount="0" stopTime="0.00" timeLoss="6.16" rerouteNo="0" devices="tripinfo_flow_ns_j3.17" vType="passenger" speedFactor="1.09" vaporized=""/>
    <tripinfo id="flow_ew_j2.15" depart="150.00" departLane="E1_1" departPos="5.10" departSpeed="15.87" departDelay="0.00" arrival="283.00" arrivalLane="E3_1" arrivalPos="489.60" arrivalSpeed="14.86" duration="133.00" routeLength="1494.90" waitingTime="15.00" waitingCount="3" stopTime="0.00" timeLoss="38.67" rerouteNo="0" devices="tripinfo_flow_ew_j2.15" vType="passenger" speedFactor="1.14" vaporized=""/>
    <tripinfo id="flow_ew_full.8" depart="116.00" departLane="E1_1" departPos="5.10" departSpeed="14.49" departDelay="0.00" arrival="284.00" arrivalLane="E4_0" arrivalPos="500.00" arrivalSpeed="14.22" duration="168.00" routeLength="1995.00" waitingTime="10.00" waitingCount="1" stopTime="0.00" timeLoss="29.81" rerouteNo="0" devices="tripinfo_flow_ew_full.8" vType="passenger" speedFactor="1.04" vaporized=""/>
    <tripinfo id="flow_ew_j2.14" depart="141.00" departLane="E1_0" departPos="5.10" departSpeed="13.93" departDelay="0.00" arrival="288.00" arrivalLane="E3_0" arrivalPos="489.60" arrivalSpeed="12.81" duration="147.00" routeLength="1494.90" waitingTime="16.00" waitingCount="2" stopTime="0.00" timeLoss="39.31" rerouteNo="0" devices="tripinfo_flow_ew_j2.14" vType="passenger" speedFactor="1.00" vaporized=""/>
    <tripinfo id="flow_ns_j2.19" depart="221.00" departLane="E5_1" departPos="5.10" departSpeed="15.94" departDelay="0.57" arrival="289.00" arrivalLane="E6_0" arrivalPos="496.00" arrivalSpeed="15.69" duration="68.00" routeLength="994.90" waitingTime="0.00" waitingCount="0" stopTime="0.00" timeLoss="5.45" rerouteNo="0" devices="tripinfo_flow_ns_j2.19" vType="passenger" speedFactor="1.15" vaporized=""/>
    <tripinfo id="flow_ew_j2.13" depart="132.00" departLane="E1_0" departPos="5.10" departSpeed="11.87" departDelay="0.00" arrival="292.00" arrivalLane="E3_0" arrivalPos="489.60" arrivalSpeed="11.37" duration="160.00" routeLength="1494.90" waitingTime="16.00" waitingCount="2" stopTime="0.00" timeLoss="33.75" rerouteNo="0" devices="tripinfo_flow_ew_j2.13" vType="passenger" speedFactor="0.85" vaporized=""/>
    <tripinfo id="flow_ns_j2.18" depart="211.00" departLane="E5_1" departPos="5.10" departSpeed="14.37" departDelay="0.85" arrival="295.00" arrivalLane="E6_0" arrivalPos="496.00" arrivalSpeed="14.13" duration="84.00" routeLength="994.90" waitingTime="5.00" waitingCount="1" stopTime="0.00" timeLoss="14.00" rerouteNo="0" devices="tripinfo_flow_ns_j2.18" vType="passenger" speedFactor="1.03" vaporized=""/>
    <tripinfo id="flow_ns_j3.18" depart="216.00" departLane="E7_0" departPos="5.10" departSpeed="13.43" departDelay="0.85" arrival="295.00" arrivalLane="E8_0" arrivalPos="496.00" arrivalSpeed="12.95" duration="79.00" routeLength="994.90" waitingTime="0.00" waitingCount="0" stopTime="0.00" timeLoss="4.73" rerouteNo="0" devices="tripinfo_flow_ns_j3.18" vType="passenger" speedFactor="0.97" vaporized=""/>
    <tripinfo id="flow_ew_j2.16" depart="159.00" departLane="E1_1" departPos="5.10" departSpeed="15.04" departDelay="0.00" arrival="303.00" arrivalLane="E3_0" arrivalPos="489.60" arrivalSpeed="14.61" duration="144.00" routeLength="1494.90" waitingTime="23.00" waitingCount="3" stopTime="0.00" timeLoss="44.58" rerouteNo="0" devices="tripinfo_flow_ew_j2.16" vType="passenger" speedFactor="1.08" vaporized=""/>